
     Program PWSCF v.6.2 (svn rev. 14038) starts on  3Jul2018 at 15:44:22 

     This program is part of the open-source Quantum ESPRESSO suite
     for quantum simulation of materials; please cite
         "P. Giannozzi et al., J. Phys.:Condens. Matter 21 395502 (2009);
         "P. Giannozzi et al., J. Phys.:Condens. Matter 29 465901 (2017);
          URL http://www.quantum-espresso.org", 
     in publications or presentations arising from this work. More details at
     http://www.quantum-espresso.org/quote

     Parallel version (MPI), running on     1 processors

     MPI processes distributed on     1 nodes
     Waiting for input...
     Reading input from standard input
     Message from routine read_cards :
     DEPRECATED: no units specified in ATOMIC_POSITIONS card
     Message from routine read_cards :
     ATOMIC_POSITIONS: units set to alat

     Current dimensions of program PWSCF are:
     Max number of different atomic species (ntypx) = 10
     Max number of k-points (npk) =  40000
     Max angular momentum in pseudopotentials (lmaxx) =  3

     Atomic positions and unit cell read from directory:
     ./tmp/Si.save/


     Subspace diagonalization in iterative solution of the eigenvalue problem:
     a serial algorithm will be used


     G-vector sticks info
     --------------------
     sticks:   dense  smooth     PW     G-vecs:    dense   smooth      PW
     Sum         721     721    211                12627    12627    2085



     bravais-lattice index     =            2
     lattice parameter (alat)  =      10.2000  a.u.
     unit-cell volume          =     265.3020 (a.u.)^3
     number of atoms/cell      =            2
     number of atomic types    =            1
     number of electrons       =         8.00 (up:   4.00, down:   4.00)
     number of Kohn-Sham states=           10
     kinetic-energy cutoff     =      50.0000  Ry
     charge density cutoff     =     200.0000  Ry
     Exchange-correlation      =  SLA  PZ   NOGX NOGC ( 1  1  0  0 0 0)

     celldm(1)=  10.200000  celldm(2)=   0.000000  celldm(3)=   0.000000
     celldm(4)=   0.000000  celldm(5)=   0.000000  celldm(6)=   0.000000

     crystal axes: (cart. coord. in units of alat)
               a(1) = (  -0.500000   0.000000   0.500000 )  
               a(2) = (   0.000000   0.500000   0.500000 )  
               a(3) = (  -0.500000   0.500000   0.000000 )  

     reciprocal axes: (cart. coord. in units 2 pi/alat)
               b(1) = ( -1.000000 -1.000000  1.000000 )  
               b(2) = (  1.000000  1.000000  1.000000 )  
               b(3) = ( -1.000000  1.000000 -1.000000 )  


     PseudoPot. # 1 for Si read from file:
     ../../pseudo/Si.pz-vbc.UPF
     MD5 check sum: bcd8ae23180a2f07cc8655fe7dcd9644
     Pseudo is Norm-conserving, Zval =  4.0
     Generated by new atomic code, or converted to UPF format
     Using radial grid of  431 points,  2 beta functions with: 
                l(1) =   0
                l(2) =   1

     atomic species   valence    mass     pseudopotential
        Si             4.00    28.08600     Si( 1.00)

     48 Sym. Ops., with inversion, found (24 have fractional translation)


                                    s                        frac. trans.

      isym =  1     identity                                     

 cryst.   s( 1) = (     1          0          0      )
                  (     0          1          0      )
                  (     0          0          1      )

 cart.    s( 1) = (  1.0000000  0.0000000  0.0000000 )
                  (  0.0000000  1.0000000  0.0000000 )
                  (  0.0000000  0.0000000  1.0000000 )


      isym =  2     180 deg rotation - cart. axis [0,0,1]        

 cryst.   s( 2) = (     0          1         -1      )
                  (     1          0         -1      )
                  (     0          0         -1      )

 cart.    s( 2) = ( -1.0000000  0.0000000  0.0000000 )
                  (  0.0000000 -1.0000000  0.0000000 )
                  (  0.0000000  0.0000000  1.0000000 )


      isym =  3     180 deg rotation - cart. axis [0,1,0]        

 cryst.   s( 3) = (    -1          0          0      )
                  (    -1          0          1      )
                  (    -1          1          0      )

 cart.    s( 3) = ( -1.0000000  0.0000000  0.0000000 )
                  (  0.0000000  1.0000000  0.0000000 )
                  (  0.0000000  0.0000000 -1.0000000 )


      isym =  4     180 deg rotation - cart. axis [1,0,0]        

 cryst.   s( 4) = (     0         -1          1      )
                  (     0         -1          0      )
                  (     1         -1          0      )

 cart.    s( 4) = (  1.0000000  0.0000000  0.0000000 )
                  (  0.0000000 -1.0000000  0.0000000 )
                  (  0.0000000  0.0000000 -1.0000000 )


      isym =  5     180 deg rotation - cart. axis [1,1,0]        

 cryst.   s( 5) = (     0         -1          0      )    f =(  0.2500000 )
                  (    -1          0          0      )       (  0.2500000 )
                  (     0          0         -1      )       (  0.2500000 )

 cart.    s( 5) = (  0.0000000  1.0000000  0.0000000 )    f =( -0.2500000 )
                  (  1.0000000  0.0000000  0.0000000 )       (  0.2500000 )
                  (  0.0000000  0.0000000 -1.0000000 )       (  0.2500000 )


      isym =  6     180 deg rotation - cart. axis [1,-1,0]       

 cryst.   s( 6) = (    -1          0          1      )    f =(  0.2500000 )
                  (     0         -1          1      )       (  0.2500000 )
                  (     0          0          1      )       (  0.2500000 )

 cart.    s( 6) = (  0.0000000 -1.0000000  0.0000000 )    f =( -0.2500000 )
                  ( -1.0000000  0.0000000  0.0000000 )       (  0.2500000 )
                  (  0.0000000  0.0000000 -1.0000000 )       (  0.2500000 )


      isym =  7      90 deg rotation - cart. axis [0,0,-1]       

 cryst.   s( 7) = (     0          1          0      )    f =(  0.2500000 )
                  (     0          1         -1      )       (  0.2500000 )
                  (    -1          1          0      )       (  0.2500000 )

 cart.    s( 7) = (  0.0000000  1.0000000  0.0000000 )    f =( -0.2500000 )
                  ( -1.0000000  0.0000000  0.0000000 )       (  0.2500000 )
                  (  0.0000000  0.0000000  1.0000000 )       (  0.2500000 )


      isym =  8      90 deg rotation - cart. axis [0,0,1]        

 cryst.   s( 8) = (     1          0         -1      )    f =(  0.2500000 )
                  (     1          0          0      )       (  0.2500000 )
                  (     1         -1          0      )       (  0.2500000 )

 cart.    s( 8) = (  0.0000000 -1.0000000  0.0000000 )    f =( -0.2500000 )
                  (  1.0000000  0.0000000  0.0000000 )       (  0.2500000 )
                  (  0.0000000  0.0000000  1.0000000 )       (  0.2500000 )


      isym =  9     180 deg rotation - cart. axis [1,0,1]        

 cryst.   s( 9) = (    -1          0          0      )    f =(  0.2500000 )
                  (     0          0         -1      )       (  0.2500000 )
                  (     0         -1          0      )       (  0.2500000 )

 cart.    s( 9) = (  0.0000000  0.0000000  1.0000000 )    f =( -0.2500000 )
                  (  0.0000000 -1.0000000  0.0000000 )       (  0.2500000 )
                  (  1.0000000  0.0000000  0.0000000 )       (  0.2500000 )


      isym = 10     180 deg rotation - cart. axis [-1,0,1]       

 cryst.   s(10) = (     1          0          0      )    f =(  0.2500000 )
                  (     1         -1          0      )       (  0.2500000 )
                  (     1          0         -1      )       (  0.2500000 )

 cart.    s(10) = (  0.0000000  0.0000000 -1.0000000 )    f =( -0.2500000 )
                  (  0.0000000 -1.0000000  0.0000000 )       (  0.2500000 )
                  ( -1.0000000  0.0000000  0.0000000 )       (  0.2500000 )


      isym = 11      90 deg rotation - cart. axis [0,1,0]        

 cryst.   s(11) = (     0          1         -1      )    f =(  0.2500000 )
                  (    -1          1          0      )       (  0.2500000 )
                  (     0          1          0      )       (  0.2500000 )

 cart.    s(11) = (  0.0000000  0.0000000  1.0000000 )    f =( -0.2500000 )
                  (  0.0000000  1.0000000  0.0000000 )       (  0.2500000 )
                  ( -1.0000000  0.0000000  0.0000000 )       (  0.2500000 )


      isym = 12      90 deg rotation - cart. axis [0,-1,0]       

 cryst.   s(12) = (     0         -1          1      )    f =(  0.2500000 )
                  (     0          0          1      )       (  0.2500000 )
                  (    -1          0          1      )       (  0.2500000 )

 cart.    s(12) = (  0.0000000  0.0000000 -1.0000000 )    f =( -0.2500000 )
                  (  0.0000000  1.0000000  0.0000000 )       (  0.2500000 )
                  (  1.0000000  0.0000000  0.0000000 )       (  0.2500000 )


      isym = 13     180 deg rotation - cart. axis [0,1,1]        

 cryst.   s(13) = (    -1          1          0      )    f =(  0.2500000 )
                  (     0          1          0      )       (  0.2500000 )
                  (     0          1         -1      )       (  0.2500000 )

 cart.    s(13) = ( -1.0000000  0.0000000  0.0000000 )    f =( -0.2500000 )
                  (  0.0000000  0.0000000  1.0000000 )       (  0.2500000 )
                  (  0.0000000  1.0000000  0.0000000 )       (  0.2500000 )


      isym = 14     180 deg rotation - cart. axis [0,1,-1]       

 cryst.   s(14) = (     0          0         -1      )    f =(  0.2500000 )
                  (     0         -1          0      )       (  0.2500000 )
                  (    -1          0          0      )       (  0.2500000 )

 cart.    s(14) = ( -1.0000000  0.0000000  0.0000000 )    f =( -0.2500000 )
                  (  0.0000000  0.0000000 -1.0000000 )       (  0.2500000 )
                  (  0.0000000 -1.0000000  0.0000000 )       (  0.2500000 )


      isym = 15      90 deg rotation - cart. axis [-1,0,0]       

 cryst.   s(15) = (     0          0          1      )    f =(  0.2500000 )
                  (    -1          0          1      )       (  0.2500000 )
                  (     0         -1          1      )       (  0.2500000 )

 cart.    s(15) = (  1.0000000  0.0000000  0.0000000 )    f =( -0.2500000 )
                  (  0.0000000  0.0000000  1.0000000 )       (  0.2500000 )
                  (  0.0000000 -1.0000000  0.0000000 )       (  0.2500000 )


      isym = 16      90 deg rotation - cart. axis [1,0,0]        

 cryst.   s(16) = (     1         -1          0      )    f =(  0.2500000 )
                  (     1          0         -1      )       (  0.2500000 )
                  (     1          0          0      )       (  0.2500000 )

 cart.    s(16) = (  1.0000000  0.0000000  0.0000000 )    f =( -0.2500000 )
                  (  0.0000000  0.0000000 -1.0000000 )       (  0.2500000 )
                  (  0.0000000  1.0000000  0.0000000 )       (  0.2500000 )


      isym = 17     120 deg rotation - cart. axis [-1,-1,-1]     

 cryst.   s(17) = (    -1          0          1      )
                  (    -1          1          0      )
                  (    -1          0          0      )

 cart.    s(17) = (  0.0000000  1.0000000  0.0000000 )
                  (  0.0000000  0.0000000  1.0000000 )
                  (  1.0000000  0.0000000  0.0000000 )


      isym = 18     120 deg rotation - cart. axis [-1,1,1]       

 cryst.   s(18) = (     0          1          0      )
                  (     0          0          1      )
                  (     1          0          0      )

 cart.    s(18) = (  0.0000000 -1.0000000  0.0000000 )
                  (  0.0000000  0.0000000  1.0000000 )
                  ( -1.0000000  0.0000000  0.0000000 )


      isym = 19     120 deg rotation - cart. axis [1,1,-1]       

 cryst.   s(19) = (     1          0         -1      )
                  (     0          0         -1      )
                  (     0          1         -1      )

 cart.    s(19) = (  0.0000000  1.0000000  0.0000000 )
                  (  0.0000000  0.0000000 -1.0000000 )
                  ( -1.0000000  0.0000000  0.0000000 )


      isym = 20     120 deg rotation - cart. axis [1,-1,1]       

 cryst.   s(20) = (     0         -1          0      )
                  (     1         -1          0      )
                  (     0         -1          1      )

 cart.    s(20) = (  0.0000000 -1.0000000  0.0000000 )
                  (  0.0000000  0.0000000 -1.0000000 )
                  (  1.0000000  0.0000000  0.0000000 )


      isym = 21     120 deg rotation - cart. axis [1,1,1]        

 cryst.   s(21) = (     0          0         -1      )
                  (     0          1         -1      )
                  (     1          0         -1      )

 cart.    s(21) = (  0.0000000  0.0000000  1.0000000 )
                  (  1.0000000  0.0000000  0.0000000 )
                  (  0.0000000  1.0000000  0.0000000 )


      isym = 22     120 deg rotation - cart. axis [-1,1,-1]      

 cryst.   s(22) = (    -1          1          0      )
                  (    -1          0          0      )
                  (    -1          0          1      )

 cart.    s(22) = (  0.0000000  0.0000000  1.0000000 )
                  ( -1.0000000  0.0000000  0.0000000 )
                  (  0.0000000 -1.0000000  0.0000000 )


      isym = 23     120 deg rotation - cart. axis [1,-1,-1]      

 cryst.   s(23) = (     0          0          1      )
                  (     1          0          0      )
                  (     0          1          0      )

 cart.    s(23) = (  0.0000000  0.0000000 -1.0000000 )
                  ( -1.0000000  0.0000000  0.0000000 )
                  (  0.0000000  1.0000000  0.0000000 )


      isym = 24     120 deg rotation - cart. axis [-1,-1,1]      

 cryst.   s(24) = (     1         -1          0      )
                  (     0         -1          1      )
                  (     0         -1          0      )

 cart.    s(24) = (  0.0000000  0.0000000 -1.0000000 )
                  (  1.0000000  0.0000000  0.0000000 )
                  (  0.0000000 -1.0000000  0.0000000 )


      isym = 25     inversion                                    

 cryst.   s(25) = (    -1          0          0      )    f =(  0.2500000 )
                  (     0         -1          0      )       (  0.2500000 )
                  (     0          0         -1      )       (  0.2500000 )

 cart.    s(25) = ( -1.0000000  0.0000000  0.0000000 )    f =( -0.2500000 )
                  (  0.0000000 -1.0000000  0.0000000 )       (  0.2500000 )
                  (  0.0000000  0.0000000 -1.0000000 )       (  0.2500000 )


      isym = 26     inv. 180 deg rotation - cart. axis [0,0,1]   

 cryst.   s(26) = (     0         -1          1      )    f =(  0.2500000 )
                  (    -1          0          1      )       (  0.2500000 )
                  (     0          0          1      )       (  0.2500000 )

 cart.    s(26) = (  1.0000000  0.0000000  0.0000000 )    f =( -0.2500000 )
                  (  0.0000000  1.0000000  0.0000000 )       (  0.2500000 )
                  (  0.0000000  0.0000000 -1.0000000 )       (  0.2500000 )


      isym = 27     inv. 180 deg rotation - cart. axis [0,1,0]   

 cryst.   s(27) = (     1          0          0      )    f =(  0.2500000 )
                  (     1          0         -1      )       (  0.2500000 )
                  (     1         -1          0      )       (  0.2500000 )

 cart.    s(27) = (  1.0000000  0.0000000  0.0000000 )    f =( -0.2500000 )
                  (  0.0000000 -1.0000000  0.0000000 )       (  0.2500000 )
                  (  0.0000000  0.0000000  1.0000000 )       (  0.2500000 )


      isym = 28     inv. 180 deg rotation - cart. axis [1,0,0]   

 cryst.   s(28) = (     0          1         -1      )    f =(  0.2500000 )
                  (     0          1          0      )       (  0.2500000 )
                  (    -1          1          0      )       (  0.2500000 )

 cart.    s(28) = ( -1.0000000  0.0000000  0.0000000 )    f =( -0.2500000 )
                  (  0.0000000  1.0000000  0.0000000 )       (  0.2500000 )
                  (  0.0000000  0.0000000  1.0000000 )       (  0.2500000 )


      isym = 29     inv. 180 deg rotation - cart. axis [1,1,0]   

 cryst.   s(29) = (     0          1          0      )
                  (     1          0          0      )
                  (     0          0          1      )

 cart.    s(29) = (  0.0000000 -1.0000000  0.0000000 )
                  ( -1.0000000  0.0000000  0.0000000 )
                  (  0.0000000  0.0000000  1.0000000 )


      isym = 30     inv. 180 deg rotation - cart. axis [1,-1,0]  

 cryst.   s(30) = (     1          0         -1      )
                  (     0          1         -1      )
                  (     0          0         -1      )

 cart.    s(30) = (  0.0000000  1.0000000  0.0000000 )
                  (  1.0000000  0.0000000  0.0000000 )
                  (  0.0000000  0.0000000  1.0000000 )


      isym = 31     inv.  90 deg rotation - cart. axis [0,0,-1]  

 cryst.   s(31) = (     0         -1          0      )
                  (     0         -1          1      )
                  (     1         -1          0      )

 cart.    s(31) = (  0.0000000 -1.0000000  0.0000000 )
                  (  1.0000000  0.0000000  0.0000000 )
                  (  0.0000000  0.0000000 -1.0000000 )


      isym = 32     inv.  90 deg rotation - cart. axis [0,0,1]   

 cryst.   s(32) = (    -1          0          1      )
                  (    -1          0          0      )
                  (    -1          1          0      )

 cart.    s(32) = (  0.0000000  1.0000000  0.0000000 )
                  ( -1.0000000  0.0000000  0.0000000 )
                  (  0.0000000  0.0000000 -1.0000000 )


      isym = 33     inv. 180 deg rotation - cart. axis [1,0,1]   

 cryst.   s(33) = (     1          0          0      )
                  (     0          0          1      )
                  (     0          1          0      )

 cart.    s(33) = (  0.0000000  0.0000000 -1.0000000 )
                  (  0.0000000  1.0000000  0.0000000 )
                  ( -1.0000000  0.0000000  0.0000000 )


      isym = 34     inv. 180 deg rotation - cart. axis [-1,0,1]  

 cryst.   s(34) = (    -1          0          0      )
                  (    -1          1          0      )
                  (    -1          0          1      )

 cart.    s(34) = (  0.0000000  0.0000000  1.0000000 )
                  (  0.0000000  1.0000000  0.0000000 )
                  (  1.0000000  0.0000000  0.0000000 )


      isym = 35     inv.  90 deg rotation - cart. axis [0,1,0]   

 cryst.   s(35) = (     0         -1          1      )
                  (     1         -1          0      )
                  (     0         -1          0      )

 cart.    s(35) = (  0.0000000  0.0000000 -1.0000000 )
                  (  0.0000000 -1.0000000  0.0000000 )
                  (  1.0000000  0.0000000  0.0000000 )


      isym = 36     inv.  90 deg rotation - cart. axis [0,-1,0]  

 cryst.   s(36) = (     0          1         -1      )
                  (     0          0         -1      )
                  (     1          0         -1      )

 cart.    s(36) = (  0.0000000  0.0000000  1.0000000 )
                  (  0.0000000 -1.0000000  0.0000000 )
                  ( -1.0000000  0.0000000  0.0000000 )


      isym = 37     inv. 180 deg rotation - cart. axis [0,1,1]   

 cryst.   s(37) = (     1         -1          0      )
                  (     0         -1          0      )
                  (     0         -1          1      )

 cart.    s(37) = (  1.0000000  0.0000000  0.0000000 )
                  (  0.0000000  0.0000000 -1.0000000 )
                  (  0.0000000 -1.0000000  0.0000000 )


      isym = 38     inv. 180 deg rotation - cart. axis [0,1,-1]  

 cryst.   s(38) = (     0          0          1      )
                  (     0          1          0      )
                  (     1          0          0      )

 cart.    s(38) = (  1.0000000  0.0000000  0.0000000 )
                  (  0.0000000  0.0000000  1.0000000 )
                  (  0.0000000  1.0000000  0.0000000 )


      isym = 39     inv.  90 deg rotation - cart. axis [-1,0,0]  

 cryst.   s(39) = (     0          0         -1      )
                  (     1          0         -1      )
                  (     0          1         -1      )

 cart.    s(39) = ( -1.0000000  0.0000000  0.0000000 )
                  (  0.0000000  0.0000000 -1.0000000 )
                  (  0.0000000  1.0000000  0.0000000 )


      isym = 40     inv.  90 deg rotation - cart. axis [1,0,0]   

 cryst.   s(40) = (    -1          1          0      )
                  (    -1          0          1      )
                  (    -1          0          0      )

 cart.    s(40) = ( -1.0000000  0.0000000  0.0000000 )
                  (  0.0000000  0.0000000  1.0000000 )
                  (  0.0000000 -1.0000000  0.0000000 )


      isym = 41     inv. 120 deg rotation - cart. axis [-1,-1,-1]

 cryst.   s(41) = (     1          0         -1      )    f =(  0.2500000 )
                  (     1         -1          0      )       (  0.2500000 )
                  (     1          0          0      )       (  0.2500000 )

 cart.    s(41) = (  0.0000000 -1.0000000  0.0000000 )    f =( -0.2500000 )
                  (  0.0000000  0.0000000 -1.0000000 )       (  0.2500000 )
                  ( -1.0000000  0.0000000  0.0000000 )       (  0.2500000 )


      isym = 42     inv. 120 deg rotation - cart. axis [-1,1,1]  

 cryst.   s(42) = (     0         -1          0      )    f =(  0.2500000 )
                  (     0          0         -1      )       (  0.2500000 )
                  (    -1          0          0      )       (  0.2500000 )

 cart.    s(42) = (  0.0000000  1.0000000  0.0000000 )    f =( -0.2500000 )
                  (  0.0000000  0.0000000 -1.0000000 )       (  0.2500000 )
                  (  1.0000000  0.0000000  0.0000000 )       (  0.2500000 )


      isym = 43     inv. 120 deg rotation - cart. axis [1,1,-1]  

 cryst.   s(43) = (    -1          0          1      )    f =(  0.2500000 )
                  (     0          0          1      )       (  0.2500000 )
                  (     0         -1          1      )       (  0.2500000 )

 cart.    s(43) = (  0.0000000 -1.0000000  0.0000000 )    f =( -0.2500000 )
                  (  0.0000000  0.0000000  1.0000000 )       (  0.2500000 )
                  (  1.0000000  0.0000000  0.0000000 )       (  0.2500000 )


      isym = 44     inv. 120 deg rotation - cart. axis [1,-1,1]  

 cryst.   s(44) = (     0          1          0      )    f =(  0.2500000 )
                  (    -1          1          0      )       (  0.2500000 )
                  (     0          1         -1      )       (  0.2500000 )

 cart.    s(44) = (  0.0000000  1.0000000  0.0000000 )    f =( -0.2500000 )
                  (  0.0000000  0.0000000  1.0000000 )       (  0.2500000 )
                  ( -1.0000000  0.0000000  0.0000000 )       (  0.2500000 )


      isym = 45     inv. 120 deg rotation - cart. axis [1,1,1]   

 cryst.   s(45) = (     0          0          1      )    f =(  0.2500000 )
                  (     0         -1          1      )       (  0.2500000 )
                  (    -1          0          1      )       (  0.2500000 )

 cart.    s(45) = (  0.0000000  0.0000000 -1.0000000 )    f =( -0.2500000 )
                  ( -1.0000000  0.0000000  0.0000000 )       (  0.2500000 )
                  (  0.0000000 -1.0000000  0.0000000 )       (  0.2500000 )


      isym = 46     inv. 120 deg rotation - cart. axis [-1,1,-1] 

 cryst.   s(46) = (     1         -1          0      )    f =(  0.2500000 )
                  (     1          0          0      )       (  0.2500000 )
                  (     1          0         -1      )       (  0.2500000 )

 cart.    s(46) = (  0.0000000  0.0000000 -1.0000000 )    f =( -0.2500000 )
                  (  1.0000000  0.0000000  0.0000000 )       (  0.2500000 )
                  (  0.0000000  1.0000000  0.0000000 )       (  0.2500000 )


      isym = 47     inv. 120 deg rotation - cart. axis [1,-1,-1] 

 cryst.   s(47) = (     0          0         -1      )    f =(  0.2500000 )
                  (    -1          0          0      )       (  0.2500000 )
                  (     0         -1          0      )       (  0.2500000 )

 cart.    s(47) = (  0.0000000  0.0000000  1.0000000 )    f =( -0.2500000 )
                  (  1.0000000  0.0000000  0.0000000 )       (  0.2500000 )
                  (  0.0000000 -1.0000000  0.0000000 )       (  0.2500000 )


      isym = 48     inv. 120 deg rotation - cart. axis [-1,-1,1] 

 cryst.   s(48) = (    -1          1          0      )    f =(  0.2500000 )
                  (     0          1         -1      )       (  0.2500000 )
                  (     0          1          0      )       (  0.2500000 )

 cart.    s(48) = (  0.0000000  0.0000000  1.0000000 )    f =( -0.2500000 )
                  ( -1.0000000  0.0000000  0.0000000 )       (  0.2500000 )
                  (  0.0000000  1.0000000  0.0000000 )       (  0.2500000 )


     point group O_h (m-3m) 
     there are 10 classes
     the character table:

       E     8C3   3C2   6C4   6C2'  i     8S6   3s_h  6S4   6s_d 
A_1g   1.00  1.00  1.00  1.00  1.00  1.00  1.00  1.00  1.00  1.00
A_2g   1.00  1.00  1.00 -1.00 -1.00  1.00  1.00  1.00 -1.00 -1.00
E_g    2.00 -1.00  2.00  0.00  0.00  2.00 -1.00  2.00  0.00  0.00
T_1g   3.00  0.00 -1.00  1.00 -1.00  3.00  0.00 -1.00  1.00 -1.00
T_2g   3.00  0.00 -1.00 -1.00  1.00  3.00  0.00 -1.00 -1.00  1.00
A_1u   1.00  1.00  1.00  1.00  1.00 -1.00 -1.00 -1.00 -1.00 -1.00
A_2u   1.00  1.00  1.00 -1.00 -1.00 -1.00 -1.00 -1.00  1.00  1.00
E_u    2.00 -1.00  2.00  0.00  0.00 -2.00  1.00 -2.00  0.00  0.00
T_1u   3.00  0.00 -1.00  1.00 -1.00 -3.00  0.00  1.00 -1.00  1.00
T_2u   3.00  0.00 -1.00 -1.00  1.00 -3.00  0.00  1.00  1.00 -1.00

     the symmetry operations in each class and the name of the first element:

     E        1
          identity                                               
     8C3     17   19   20   18   24   21   22   23
          120 deg rotation - cart. axis [-1,-1,-1]               
     3C2      2    4    3
          180 deg rotation - cart. axis [0,0,1]                  
     6C4      7    8   15   16   12   11
           90 deg rotation - cart. axis [0,0,-1]                 
     6C2'     5    6   14   13   10    9
          180 deg rotation - cart. axis [1,1,0]                  
     i       25
          inversion                                              
     8S6     41   43   44   42   48   45   46   47
          inv. 120 deg rotation - cart. axis [-1,-1,-1]          
     3s_h    26   28   27
          inv. 180 deg rotation - cart. axis [0,0,1]             
     6S4     31   32   39   40   36   35
          inv.  90 deg rotation - cart. axis [0,0,-1]            
     6s_d    29   30   38   37   34   33
          inv. 180 deg rotation - cart. axis [1,1,0]             

   Cartesian axes

     site n.     atom                  positions (alat units)
         1           Si  tau(   1) = (   0.0000000   0.0000000   0.0000000  )
         2           Si  tau(   2) = (   0.2500000   0.2500000   0.2500000  )

   Crystallographic axes

     site n.     atom                  positions (cryst. coord.)
         1           Si  tau(   1) = (  0.0000000  0.0000000  0.0000000  )
         2           Si  tau(   2) = ( -0.2500000  0.7500000 -0.2500000  )

     number of k points=   100
                       cart. coord. in units 2pi/alat
        k(    1) = (   0.0000000   0.0000000   0.0000000), wk =   0.0200000
        k(    2) = (   0.0000000   0.0267857   0.0267857), wk =   0.0200000
        k(    3) = (   0.0000000   0.0535714   0.0535714), wk =   0.0200000
        k(    4) = (   0.0000000   0.0803571   0.0803571), wk =   0.0200000
        k(    5) = (  -0.0000000   0.1071429   0.1071429), wk =   0.0200000
        k(    6) = (   0.0000000   0.1339286   0.1339286), wk =   0.0200000
        k(    7) = (  -0.0000000   0.1607143   0.1607143), wk =   0.0200000
        k(    8) = (   0.0000000   0.1875000   0.1875000), wk =   0.0200000
        k(    9) = (   0.0000000   0.2142857   0.2142857), wk =   0.0200000
        k(   10) = (   0.0000000   0.2410714   0.2410714), wk =   0.0200000
        k(   11) = (   0.0000000   0.2678571   0.2678571), wk =   0.0200000
        k(   12) = (  -0.0000000   0.2946429   0.2946429), wk =   0.0200000
        k(   13) = (   0.0000000   0.3214286   0.3214286), wk =   0.0200000
        k(   14) = (  -0.0000000   0.3482143   0.3482143), wk =   0.0200000
        k(   15) = (   0.0000000   0.3750000   0.3750000), wk =   0.0200000
        k(   16) = (   0.0000000   0.4017857   0.4017857), wk =   0.0200000
        k(   17) = (   0.0000000   0.4285714   0.4285714), wk =   0.0200000
        k(   18) = (   0.0000000   0.4553571   0.4553571), wk =   0.0200000
        k(   19) = (  -0.0000000   0.4821429   0.4821429), wk =   0.0200000
        k(   20) = (   0.0000000   0.5089286   0.5089286), wk =   0.0200000
        k(   21) = (  -0.0000000   0.5357143   0.5357143), wk =   0.0200000
        k(   22) = (   0.0000000   0.5625000   0.5625000), wk =   0.0200000
        k(   23) = (   0.0000000   0.5892857   0.5892857), wk =   0.0200000
        k(   24) = (   0.0000000   0.6160714   0.6160714), wk =   0.0200000
        k(   25) = (   0.0000000   0.6428571   0.6428571), wk =   0.0200000
        k(   26) = (  -0.0000000   0.6696429   0.6696429), wk =   0.0200000
        k(   27) = (   0.0000000   0.6964286   0.6964286), wk =   0.0200000
        k(   28) = (  -0.0000000   0.7232143   0.7232143), wk =   0.0200000
        k(   29) = (   0.0000000   0.7500000   0.7500000), wk =   0.0200000
        k(   30) = (   0.0000000   0.7142857   0.7619048), wk =   0.0200000
        k(   31) = (   0.0000000   0.6785714   0.7738095), wk =   0.0200000
        k(   32) = (   0.0000000   0.6428571   0.7857143), wk =   0.0200000
        k(   33) = (  -0.0000000   0.6071429   0.7976190), wk =   0.0200000
        k(   34) = (  -0.0000000   0.5714286   0.8095238), wk =   0.0200000
        k(   35) = (  -0.0000000   0.5357143   0.8214286), wk =   0.0200000
        k(   36) = (  -0.0000000   0.5000000   0.8333333), wk =   0.0200000
        k(   37) = (   0.0000000   0.4642857   0.8452381), wk =   0.0200000
        k(   38) = (  -0.0000000   0.4285714   0.8571429), wk =   0.0200000
        k(   39) = (   0.0000000   0.3928571   0.8690476), wk =   0.0200000
        k(   40) = (  -0.0000000   0.3571429   0.8809524), wk =   0.0200000
        k(   41) = (   0.0000000   0.3214286   0.8928571), wk =   0.0200000
        k(   42) = (  -0.0000000   0.2857143   0.9047619), wk =   0.0200000
        k(   43) = (   0.0000000   0.2500000   0.9166667), wk =   0.0200000
        k(   44) = (   0.0000000   0.2142857   0.9285714), wk =   0.0200000
        k(   45) = (   0.0000000   0.1785714   0.9404762), wk =   0.0200000
        k(   46) = (   0.0000000   0.1428571   0.9523810), wk =   0.0200000
        k(   47) = (   0.0000000   0.1071429   0.9642857), wk =   0.0200000
        k(   48) = (   0.0000000   0.0714286   0.9761905), wk =   0.0200000
        k(   49) = (   0.0000000   0.0357143   0.9880952), wk =   0.0200000
        k(   50) = (   0.0000000   0.0000000   1.0000000), wk =   0.0200000
        k(   51) = (   0.0000000   0.0000000   0.9629630), wk =   0.0200000
        k(   52) = (   0.0000000   0.0000000   0.9259259), wk =   0.0200000
        k(   53) = (   0.0000000   0.0000000   0.8888889), wk =   0.0200000
        k(   54) = (   0.0000000   0.0000000   0.8518519), wk =   0.0200000
        k(   55) = (   0.0000000   0.0000000   0.8148148), wk =   0.0200000
        k(   56) = (   0.0000000   0.0000000   0.7777778), wk =   0.0200000
        k(   57) = (   0.0000000   0.0000000   0.7407407), wk =   0.0200000
        k(   58) = (   0.0000000   0.0000000   0.7037037), wk =   0.0200000
        k(   59) = (   0.0000000   0.0000000   0.6666667), wk =   0.0200000
        k(   60) = (   0.0000000   0.0000000   0.6296296), wk =   0.0200000
        k(   61) = (   0.0000000   0.0000000   0.5925926), wk =   0.0200000
        k(   62) = (   0.0000000   0.0000000   0.5555556), wk =   0.0200000
        k(   63) = (   0.0000000   0.0000000   0.5185185), wk =   0.0200000
        k(   64) = (   0.0000000   0.0000000   0.4814815), wk =   0.0200000
        k(   65) = (   0.0000000   0.0000000   0.4444444), wk =   0.0200000
        k(   66) = (   0.0000000   0.0000000   0.4074074), wk =   0.0200000
        k(   67) = (   0.0000000   0.0000000   0.3703704), wk =   0.0200000
        k(   68) = (   0.0000000   0.0000000   0.3333333), wk =   0.0200000
        k(   69) = (   0.0000000   0.0000000   0.2962963), wk =   0.0200000
        k(   70) = (   0.0000000   0.0000000   0.2592593), wk =   0.0200000
        k(   71) = (   0.0000000   0.0000000   0.2222222), wk =   0.0200000
        k(   72) = (   0.0000000   0.0000000   0.1851852), wk =   0.0200000
        k(   73) = (   0.0000000   0.0000000   0.1481481), wk =   0.0200000
        k(   74) = (   0.0000000   0.0000000   0.1111111), wk =   0.0200000
        k(   75) = (   0.0000000   0.0000000   0.0740741), wk =   0.0200000
        k(   76) = (   0.0000000   0.0000000   0.0370370), wk =   0.0200000
        k(   77) = (   0.0000000   0.0000000   0.0000000), wk =   0.0200000
        k(   78) = (  -0.0217391   0.0217391   0.0217391), wk =   0.0200000
        k(   79) = (  -0.0434783   0.0434783   0.0434783), wk =   0.0200000
        k(   80) = (  -0.0652174   0.0652174   0.0652174), wk =   0.0200000
        k(   81) = (  -0.0869565   0.0869565   0.0869565), wk =   0.0200000
        k(   82) = (  -0.1086957   0.1086957   0.1086957), wk =   0.0200000
        k(   83) = (  -0.1304348   0.1304348   0.1304348), wk =   0.0200000
        k(   84) = (  -0.1521739   0.1521739   0.1521739), wk =   0.0200000
        k(   85) = (  -0.1739130   0.1739130   0.1739130), wk =   0.0200000
        k(   86) = (  -0.1956522   0.1956522   0.1956522), wk =   0.0200000
        k(   87) = (  -0.2173913   0.2173913   0.2173913), wk =   0.0200000
        k(   88) = (  -0.2391304   0.2391304   0.2391304), wk =   0.0200000
        k(   89) = (  -0.2608696   0.2608696   0.2608696), wk =   0.0200000
        k(   90) = (  -0.2826087   0.2826087   0.2826087), wk =   0.0200000
        k(   91) = (  -0.3043478   0.3043478   0.3043478), wk =   0.0200000
        k(   92) = (  -0.3260870   0.3260870   0.3260870), wk =   0.0200000
        k(   93) = (  -0.3478261   0.3478261   0.3478261), wk =   0.0200000
        k(   94) = (  -0.3695652   0.3695652   0.3695652), wk =   0.0200000
        k(   95) = (  -0.3913043   0.3913043   0.3913043), wk =   0.0200000
        k(   96) = (  -0.4130435   0.4130435   0.4130435), wk =   0.0200000
        k(   97) = (  -0.4347826   0.4347826   0.4347826), wk =   0.0200000
        k(   98) = (  -0.4565217   0.4565217   0.4565217), wk =   0.0200000
        k(   99) = (  -0.4782609   0.4782609   0.4782609), wk =   0.0200000
        k(  100) = (  -0.5000000   0.5000000   0.5000000), wk =   0.0200000

                       cryst. coord.
        k(    1) = (   0.0000000   0.0000000   0.0000000), wk =   0.0200000
        k(    2) = (   0.0133929   0.0267857   0.0133929), wk =   0.0200000
        k(    3) = (   0.0267857   0.0535714   0.0267857), wk =   0.0200000
        k(    4) = (   0.0401786   0.0803571   0.0401786), wk =   0.0200000
        k(    5) = (   0.0535714   0.1071429   0.0535714), wk =   0.0200000
        k(    6) = (   0.0669643   0.1339286   0.0669643), wk =   0.0200000
        k(    7) = (   0.0803571   0.1607143   0.0803571), wk =   0.0200000
        k(    8) = (   0.0937500   0.1875000   0.0937500), wk =   0.0200000
        k(    9) = (   0.1071429   0.2142857   0.1071429), wk =   0.0200000
        k(   10) = (   0.1205357   0.2410714   0.1205357), wk =   0.0200000
        k(   11) = (   0.1339286   0.2678571   0.1339286), wk =   0.0200000
        k(   12) = (   0.1473214   0.2946429   0.1473214), wk =   0.0200000
        k(   13) = (   0.1607143   0.3214286   0.1607143), wk =   0.0200000
        k(   14) = (   0.1741071   0.3482143   0.1741071), wk =   0.0200000
        k(   15) = (   0.1875000   0.3750000   0.1875000), wk =   0.0200000
        k(   16) = (   0.2008929   0.4017857   0.2008929), wk =   0.0200000
        k(   17) = (   0.2142857   0.4285714   0.2142857), wk =   0.0200000
        k(   18) = (   0.2276786   0.4553571   0.2276786), wk =   0.0200000
        k(   19) = (   0.2410714   0.4821429   0.2410714), wk =   0.0200000
        k(   20) = (   0.2544643   0.5089286   0.2544643), wk =   0.0200000
        k(   21) = (   0.2678571   0.5357143   0.2678571), wk =   0.0200000
        k(   22) = (   0.2812500   0.5625000   0.2812500), wk =   0.0200000
        k(   23) = (   0.2946429   0.5892857   0.2946429), wk =   0.0200000
        k(   24) = (   0.3080357   0.6160714   0.3080357), wk =   0.0200000
        k(   25) = (   0.3214286   0.6428571   0.3214286), wk =   0.0200000
        k(   26) = (   0.3348214   0.6696429   0.3348214), wk =   0.0200000
        k(   27) = (   0.3482143   0.6964286   0.3482143), wk =   0.0200000
        k(   28) = (   0.3616071   0.7232143   0.3616071), wk =   0.0200000
        k(   29) = (   0.3750000   0.7500000   0.3750000), wk =   0.0200000
        k(   30) = (   0.3809524   0.7380952   0.3571429), wk =   0.0200000
        k(   31) = (   0.3869048   0.7261905   0.3392857), wk =   0.0200000
        k(   32) = (   0.3928571   0.7142857   0.3214286), wk =   0.0200000
        k(   33) = (   0.3988095   0.7023810   0.3035714), wk =   0.0200000
        k(   34) = (   0.4047619   0.6904762   0.2857143), wk =   0.0200000
        k(   35) = (   0.4107143   0.6785714   0.2678571), wk =   0.0200000
        k(   36) = (   0.4166667   0.6666667   0.2500000), wk =   0.0200000
        k(   37) = (   0.4226190   0.6547619   0.2321429), wk =   0.0200000
        k(   38) = (   0.4285714   0.6428571   0.2142857), wk =   0.0200000
        k(   39) = (   0.4345238   0.6309524   0.1964286), wk =   0.0200000
        k(   40) = (   0.4404762   0.6190476   0.1785714), wk =   0.0200000
        k(   41) = (   0.4464286   0.6071429   0.1607143), wk =   0.0200000
        k(   42) = (   0.4523810   0.5952381   0.1428571), wk =   0.0200000
        k(   43) = (   0.4583333   0.5833333   0.1250000), wk =   0.0200000
        k(   44) = (   0.4642857   0.5714286   0.1071429), wk =   0.0200000
        k(   45) = (   0.4702381   0.5595238   0.0892857), wk =   0.0200000
        k(   46) = (   0.4761905   0.5476190   0.0714286), wk =   0.0200000
        k(   47) = (   0.4821429   0.5357143   0.0535714), wk =   0.0200000
        k(   48) = (   0.4880952   0.5238095   0.0357143), wk =   0.0200000
        k(   49) = (   0.4940476   0.5119048   0.0178571), wk =   0.0200000
        k(   50) = (   0.5000000   0.5000000   0.0000000), wk =   0.0200000
        k(   51) = (   0.4814815   0.4814815   0.0000000), wk =   0.0200000
        k(   52) = (   0.4629630   0.4629630   0.0000000), wk =   0.0200000
        k(   53) = (   0.4444444   0.4444444   0.0000000), wk =   0.0200000
        k(   54) = (   0.4259259   0.4259259   0.0000000), wk =   0.0200000
        k(   55) = (   0.4074074   0.4074074   0.0000000), wk =   0.0200000
        k(   56) = (   0.3888889   0.3888889   0.0000000), wk =   0.0200000
        k(   57) = (   0.3703704   0.3703704   0.0000000), wk =   0.0200000
        k(   58) = (   0.3518519   0.3518519   0.0000000), wk =   0.0200000
        k(   59) = (   0.3333333   0.3333333   0.0000000), wk =   0.0200000
        k(   60) = (   0.3148148   0.3148148   0.0000000), wk =   0.0200000
        k(   61) = (   0.2962963   0.2962963   0.0000000), wk =   0.0200000
        k(   62) = (   0.2777778   0.2777778   0.0000000), wk =   0.0200000
        k(   63) = (   0.2592593   0.2592593   0.0000000), wk =   0.0200000
        k(   64) = (   0.2407407   0.2407407   0.0000000), wk =   0.0200000
        k(   65) = (   0.2222222   0.2222222   0.0000000), wk =   0.0200000
        k(   66) = (   0.2037037   0.2037037   0.0000000), wk =   0.0200000
        k(   67) = (   0.1851852   0.1851852   0.0000000), wk =   0.0200000
        k(   68) = (   0.1666667   0.1666667   0.0000000), wk =   0.0200000
        k(   69) = (   0.1481481   0.1481481   0.0000000), wk =   0.0200000
        k(   70) = (   0.1296296   0.1296296   0.0000000), wk =   0.0200000
        k(   71) = (   0.1111111   0.1111111   0.0000000), wk =   0.0200000
        k(   72) = (   0.0925926   0.0925926   0.0000000), wk =   0.0200000
        k(   73) = (   0.0740741   0.0740741   0.0000000), wk =   0.0200000
        k(   74) = (   0.0555556   0.0555556   0.0000000), wk =   0.0200000
        k(   75) = (   0.0370370   0.0370370   0.0000000), wk =   0.0200000
        k(   76) = (   0.0185185   0.0185185   0.0000000), wk =   0.0200000
        k(   77) = (   0.0000000   0.0000000   0.0000000), wk =   0.0200000
        k(   78) = (   0.0217391   0.0217391   0.0217391), wk =   0.0200000
        k(   79) = (   0.0434783   0.0434783   0.0434783), wk =   0.0200000
        k(   80) = (   0.0652174   0.0652174   0.0652174), wk =   0.0200000
        k(   81) = (   0.0869565   0.0869565   0.0869565), wk =   0.0200000
        k(   82) = (   0.1086957   0.1086957   0.1086957), wk =   0.0200000
        k(   83) = (   0.1304348   0.1304348   0.1304348), wk =   0.0200000
        k(   84) = (   0.1521739   0.1521739   0.1521739), wk =   0.0200000
        k(   85) = (   0.1739130   0.1739130   0.1739130), wk =   0.0200000
        k(   86) = (   0.1956522   0.1956522   0.1956522), wk =   0.0200000
        k(   87) = (   0.2173913   0.2173913   0.2173913), wk =   0.0200000
        k(   88) = (   0.2391304   0.2391304   0.2391304), wk =   0.0200000
        k(   89) = (   0.2608696   0.2608696   0.2608696), wk =   0.0200000
        k(   90) = (   0.2826087   0.2826087   0.2826087), wk =   0.0200000
        k(   91) = (   0.3043478   0.3043478   0.3043478), wk =   0.0200000
        k(   92) = (   0.3260870   0.3260870   0.3260870), wk =   0.0200000
        k(   93) = (   0.3478261   0.3478261   0.3478261), wk =   0.0200000
        k(   94) = (   0.3695652   0.3695652   0.3695652), wk =   0.0200000
        k(   95) = (   0.3913043   0.3913043   0.3913043), wk =   0.0200000
        k(   96) = (   0.4130435   0.4130435   0.4130435), wk =   0.0200000
        k(   97) = (   0.4347826   0.4347826   0.4347826), wk =   0.0200000
        k(   98) = (   0.4565217   0.4565217   0.4565217), wk =   0.0200000
        k(   99) = (   0.4782609   0.4782609   0.4782609), wk =   0.0200000
        k(  100) = (   0.5000000   0.5000000   0.5000000), wk =   0.0200000

     Dense  grid:    12627 G-vectors     FFT dimensions: (  36,  36,  36)

     Dynamical RAM for                 wfc:       0.24 MB

     Dynamical RAM for     wfc (w. buffer):       0.24 MB

     Dynamical RAM for           str. fact:       0.19 MB

     Dynamical RAM for           local pot:       0.00 MB

     Dynamical RAM for          nlocal pot:       0.19 MB

     Dynamical RAM for                qrad:       0.16 MB

     Dynamical RAM for          rho,v,vnew:       1.65 MB

     Dynamical RAM for           G-vectors:       0.82 MB

     Dynamical RAM for          h,s,v(r/c):       0.07 MB

     Dynamical RAM for          <psi|beta>:       0.00 MB

     Dynamical RAM for                 psi:       0.97 MB

     Dynamical RAM for                hpsi:       0.97 MB

     Dynamical RAM for      wfcinit/wfcrot:       0.49 MB

     Estimated static dynamical RAM per process >       5.42 MB

     Estimated max dynamical RAM per process >       7.42 MB

     The potential is recalculated from file :
     ./tmp/Si.save/charge-density.dat

     Starting wfc are    8 randomized atomic wfcs +    2 random wfc

     Band Structure Calculation
     Davidson diagonalization with overlap

     Computing kpt #:     1
     total cpu time spent up to now is        0.5 secs

     Computing kpt #:     2
     total cpu time spent up to now is        0.7 secs

     Computing kpt #:     3
     total cpu time spent up to now is        1.0 secs

     Computing kpt #:     4
     total cpu time spent up to now is        1.2 secs

     Computing kpt #:     5
     total cpu time spent up to now is        1.5 secs

     Computing kpt #:     6
     total cpu time spent up to now is        1.7 secs

     Computing kpt #:     7
     total cpu time spent up to now is        1.9 secs

     Computing kpt #:     8
     total cpu time spent up to now is        2.2 secs

     Computing kpt #:     9
     total cpu time spent up to now is        2.4 secs

     Computing kpt #:    10
     total cpu time spent up to now is        2.6 secs

     Computing kpt #:    11
     total cpu time spent up to now is        2.8 secs

     Computing kpt #:    12
     total cpu time spent up to now is        3.0 secs

     Computing kpt #:    13
     total cpu time spent up to now is        3.3 secs

     Computing kpt #:    14
     total cpu time spent up to now is        3.5 secs

     Computing kpt #:    15
     total cpu time spent up to now is        3.8 secs

     Computing kpt #:    16
     total cpu time spent up to now is        4.0 secs

     Computing kpt #:    17
     total cpu time spent up to now is        4.3 secs

     Computing kpt #:    18
     total cpu time spent up to now is        4.5 secs

     Computing kpt #:    19
     total cpu time spent up to now is        4.7 secs

     Computing kpt #:    20
     total cpu time spent up to now is        4.9 secs

     Computing kpt #:    21
     total cpu time spent up to now is        5.2 secs

     Computing kpt #:    22
     total cpu time spent up to now is        5.4 secs

     Computing kpt #:    23
     total cpu time spent up to now is        5.6 secs

     Computing kpt #:    24
     total cpu time spent up to now is        5.9 secs

     Computing kpt #:    25
     total cpu time spent up to now is        6.1 secs

     Computing kpt #:    26
     total cpu time spent up to now is        6.3 secs

     Computing kpt #:    27
     total cpu time spent up to now is        6.5 secs

     Computing kpt #:    28
     total cpu time spent up to now is        6.7 secs

     Computing kpt #:    29
     total cpu time spent up to now is        6.9 secs

     Computing kpt #:    30
     total cpu time spent up to now is        7.2 secs

     Computing kpt #:    31
     total cpu time spent up to now is        7.4 secs

     Computing kpt #:    32
     total cpu time spent up to now is        7.6 secs

     Computing kpt #:    33
     total cpu time spent up to now is        7.8 secs

     Computing kpt #:    34
     total cpu time spent up to now is        8.0 secs

     Computing kpt #:    35
     total cpu time spent up to now is        8.3 secs

     Computing kpt #:    36
     total cpu time spent up to now is        8.5 secs

     Computing kpt #:    37
     total cpu time spent up to now is        8.7 secs

     Computing kpt #:    38
     total cpu time spent up to now is        8.9 secs

     Computing kpt #:    39
     total cpu time spent up to now is        9.2 secs

     Computing kpt #:    40
     total cpu time spent up to now is        9.4 secs

     Computing kpt #:    41
     total cpu time spent up to now is        9.7 secs

     Computing kpt #:    42
     total cpu time spent up to now is        9.9 secs

     Computing kpt #:    43
     total cpu time spent up to now is       10.2 secs

     Computing kpt #:    44
     total cpu time spent up to now is       10.4 secs

     Computing kpt #:    45
     total cpu time spent up to now is       10.7 secs

     Computing kpt #:    46
     total cpu time spent up to now is       11.0 secs

     Computing kpt #:    47
     total cpu time spent up to now is       11.2 secs

     Computing kpt #:    48
     total cpu time spent up to now is       11.4 secs

     Computing kpt #:    49
     total cpu time spent up to now is       11.7 secs

     Computing kpt #:    50
     total cpu time spent up to now is       11.9 secs

     Computing kpt #:    51
     total cpu time spent up to now is       12.1 secs

     Computing kpt #:    52
     total cpu time spent up to now is       12.4 secs

     Computing kpt #:    53
     total cpu time spent up to now is       12.7 secs

     Computing kpt #:    54
     total cpu time spent up to now is       13.0 secs

     Computing kpt #:    55
     total cpu time spent up to now is       13.2 secs

     Computing kpt #:    56
     total cpu time spent up to now is       13.5 secs

     Computing kpt #:    57
     total cpu time spent up to now is       13.7 secs

     Computing kpt #:    58
     total cpu time spent up to now is       14.0 secs

     Computing kpt #:    59
     total cpu time spent up to now is       14.2 secs

     Computing kpt #:    60
     total cpu time spent up to now is       14.4 secs

     Computing kpt #:    61
     total cpu time spent up to now is       14.6 secs

     Computing kpt #:    62
     total cpu time spent up to now is       14.8 secs

     Computing kpt #:    63
     total cpu time spent up to now is       15.0 secs

     Computing kpt #:    64
     total cpu time spent up to now is       15.3 secs

     Computing kpt #:    65
     total cpu time spent up to now is       15.5 secs

     Computing kpt #:    66
     total cpu time spent up to now is       15.7 secs

     Computing kpt #:    67
     total cpu time spent up to now is       15.9 secs

     Computing kpt #:    68
     total cpu time spent up to now is       16.2 secs

     Computing kpt #:    69
     total cpu time spent up to now is       16.4 secs

     Computing kpt #:    70
     total cpu time spent up to now is       16.7 secs

     Computing kpt #:    71
     total cpu time spent up to now is       17.0 secs

     Computing kpt #:    72
     total cpu time spent up to now is       17.2 secs

     Computing kpt #:    73
     total cpu time spent up to now is       17.5 secs

     Computing kpt #:    74
     total cpu time spent up to now is       17.7 secs

     Computing kpt #:    75
     total cpu time spent up to now is       18.0 secs

     Computing kpt #:    76
     total cpu time spent up to now is       18.3 secs

     Computing kpt #:    77
     total cpu time spent up to now is       18.5 secs

     Computing kpt #:    78
     total cpu time spent up to now is       18.8 secs

     Computing kpt #:    79
     total cpu time spent up to now is       19.0 secs

     Computing kpt #:    80
     total cpu time spent up to now is       19.2 secs

     Computing kpt #:    81
     total cpu time spent up to now is       19.5 secs

     Computing kpt #:    82
     total cpu time spent up to now is       19.7 secs

     Computing kpt #:    83
     total cpu time spent up to now is       19.9 secs

     Computing kpt #:    84
     total cpu time spent up to now is       20.2 secs

     Computing kpt #:    85
     total cpu time spent up to now is       20.4 secs

     Computing kpt #:    86
     total cpu time spent up to now is       20.6 secs

     Computing kpt #:    87
     total cpu time spent up to now is       20.8 secs

     Computing kpt #:    88
     total cpu time spent up to now is       21.1 secs

     Computing kpt #:    89
     total cpu time spent up to now is       21.3 secs

     Computing kpt #:    90
     total cpu time spent up to now is       21.5 secs

     Computing kpt #:    91
     total cpu time spent up to now is       21.7 secs

     Computing kpt #:    92
     total cpu time spent up to now is       22.0 secs

     Computing kpt #:    93
     total cpu time spent up to now is       22.2 secs

     Computing kpt #:    94
     total cpu time spent up to now is       22.4 secs

     Computing kpt #:    95
     total cpu time spent up to now is       22.7 secs

     Computing kpt #:    96
     total cpu time spent up to now is       22.9 secs

     Computing kpt #:    97
     total cpu time spent up to now is       23.2 secs

     Computing kpt #:    98
     total cpu time spent up to now is       23.5 secs

     Computing kpt #:    99
     total cpu time spent up to now is       23.8 secs

     Computing kpt #:   100
     total cpu time spent up to now is       24.0 secs

     ethr =  1.25E-10,  avg # of iterations = 20.4

     total cpu time spent up to now is       24.0 secs

     End of band structure calculation

          k = 0.0000 0.0000 0.0000 (  1591 PWs)   bands (ev):

    -5.8222   6.2293   6.2293   6.2293   8.7995   8.7995   8.7995   9.6962
    13.9952  13.9952

          k = 0.0000 0.0268 0.0268 (  1607 PWs)   bands (ev):

    -5.8158   6.1632   6.2013   6.2266   8.8060   8.8121   8.8332   9.7378
    13.9562  13.9867

          k = 0.0000 0.0536 0.0536 (  1573 PWs)   bands (ev):

    -5.7966   5.9816   6.1195   6.2184   8.8256   8.8485   8.9128   9.8671
    13.8479  13.9622

          k = 0.0000 0.0804 0.0804 (  1569 PWs)   bands (ev):

    -5.7648   5.7201   5.9901   6.2042   8.8581   8.9057   8.9997  10.0839
    13.6895  13.9248

          k =-0.0000 0.1071 0.1071 (  1561 PWs)   bands (ev):

    -5.7202   5.4103   5.8211   6.1837   8.9037   8.9800   9.0741  10.3711
    13.5025  13.8809

          k = 0.0000 0.1339 0.1339 (  1562 PWs)   bands (ev):

    -5.6631   5.0740   5.6212   6.1561   8.9623   9.0681   9.1353  10.6987
    13.3045  13.8414

          k =-0.0000 0.1607 0.1607 (  1566 PWs)   bands (ev):

    -5.5935   4.7244   5.3980   6.1206   9.0338   9.1681   9.1874  11.0340
    13.1087  13.8240

          k = 0.0000 0.1875 0.1875 (  1560 PWs)   bands (ev):

    -5.5115   4.3699   5.1583   6.0764   9.1183   9.2328   9.2786  11.3433
    12.9241  13.8554

          k = 0.0000 0.2143 0.2143 (  1560 PWs)   bands (ev):

    -5.4173   4.0156   4.9075   6.0228   9.2158   9.2718   9.3992  11.5924
    12.7575  13.9682

          k = 0.0000 0.2411 0.2411 (  1564 PWs)   bands (ev):

    -5.3110   3.6649   4.6503   5.9591   9.3027   9.3261   9.5297  11.7584
    12.6135  14.1876

          k = 0.0000 0.2679 0.2679 (  1572 PWs)   bands (ev):

    -5.1930   3.3203   4.3905   5.8849   9.3224   9.4493   9.6703  11.8445
    12.4953  14.5151

          k =-0.0000 0.2946 0.2946 (  1572 PWs)   bands (ev):

    -5.0634   2.9832   4.1311   5.8002   9.3270   9.5852   9.8211  11.8766
    12.4050  14.9307

          k = 0.0000 0.3214 0.3214 (  1574 PWs)   bands (ev):

    -4.9227   2.6549   3.8747   5.7051   9.3124   9.7340   9.9825  11.8850
    12.3439  15.4097

          k =-0.0000 0.3482 0.3482 (  1574 PWs)   bands (ev):

    -4.7711   2.3364   3.6238   5.6003   9.2749   9.8954  10.1547  11.8936
    12.3124  15.9328

          k = 0.0000 0.3750 0.3750 (  1570 PWs)   bands (ev):

    -4.6093   2.0281   3.3801   5.4868   9.2129  10.0694  10.3377  11.9182
    12.3105  16.4866

          k = 0.0000 0.4018 0.4018 (  1580 PWs)   bands (ev):

    -4.4379   1.7308   3.1455   5.3658   9.1267  10.2559  10.5316  11.9672
    12.3376  16.8966

          k = 0.0000 0.4286 0.4286 (  1572 PWs)   bands (ev):

    -4.2574   1.4448   2.9216   5.2388   9.0190  10.4549  10.7365  12.0439
    12.3926  16.8109

          k = 0.0000 0.4554 0.4554 (  1572 PWs)   bands (ev):

    -4.0689   1.1705   2.7102   5.1072   8.8937  10.6662  10.9521  12.1482
    12.4744  16.5688

          k =-0.0000 0.4821 0.4821 (  1572 PWs)   bands (ev):

    -3.8734   0.9082   2.5128   4.9727   8.7553  10.8896  11.1780  12.2784
    12.5815  16.1833

          k = 0.0000 0.5089 0.5089 (  1576 PWs)   bands (ev):

    -3.6724   0.6581   2.3313   4.8369   8.6082  11.1251  11.4133  12.4318
    12.7125  15.6984

          k =-0.0000 0.5357 0.5357 (  1582 PWs)   bands (ev):

    -3.4673   0.4203   2.1676   4.7012   8.4566  11.3725  11.6565  12.6058
    12.8661  15.1576

          k = 0.0000 0.5625 0.5625 (  1584 PWs)   bands (ev):

    -3.2603   0.1952   2.0238   4.5671   8.3035  11.6314  11.9034  12.7979
    13.0407  14.5929

          k = 0.0000 0.5893 0.5893 (  1582 PWs)   bands (ev):

    -3.0539  -0.0171   1.9025   4.4357   8.1517  11.9018  12.1429  13.0059
    13.2349  14.0322

          k = 0.0000 0.6161 0.6161 (  1584 PWs)   bands (ev):

    -2.8509  -0.2166   1.8066   4.3084   8.0035  12.1833  12.3340  13.2278
    13.4475  13.5269

          k = 0.0000 0.6429 0.6429 (  1578 PWs)   bands (ev):

    -2.6548  -0.4030   1.7392   4.1860   7.8605  12.3104  12.4755  13.2493
    13.4618  13.6771

          k =-0.0000 0.6696 0.6696 (  1578 PWs)   bands (ev):

    -2.4694  -0.5764   1.7037   4.0694   7.7241  11.9325  12.7780  13.3432
    13.7062  13.9225

          k = 0.0000 0.6964 0.6964 (  1584 PWs)   bands (ev):

    -2.2986  -0.7366   1.7034   3.9595   7.5955  11.4147  13.0903  13.5974
    13.9593  14.1822

          k =-0.0000 0.7232 0.7232 (  1588 PWs)   bands (ev):

    -2.1460  -0.8834   1.7409   3.8570   7.4755  10.8693  13.4115  13.9018
    14.2194  14.4551

          k = 0.0000 0.7500 0.7500 (  1580 PWs)   bands (ev):

    -2.0142  -1.0169   1.8178   3.7623   7.3649  10.3245  13.7408  14.2303
    14.4847  14.7396

          k = 0.0000 0.7143 0.7619 (  1581 PWs)   bands (ev):

    -2.0648  -0.9611   1.7831   3.7688   7.4633  10.5688  13.4500  14.0868
    14.2253  14.8927

          k = 0.0000 0.6786 0.7738 (  1585 PWs)   bands (ev):

    -2.1091  -0.9067   1.7648   3.7142   7.6578  10.8184  13.0463  13.5929
    14.3404  15.1489

          k = 0.0000 0.6429 0.7857 (  1587 PWs)   bands (ev):

    -2.1473  -0.8544   1.7630   3.6139   7.9333  11.0635  12.6368  13.0980
    14.4791  15.4146

          k =-0.0000 0.6071 0.7976 (  1590 PWs)   bands (ev):

    -2.1790  -0.8054   1.7776   3.4859   8.2722  11.2696  12.2737  12.6095
    14.6239  15.6827

          k =-0.0000 0.5714 0.8095 (  1587 PWs)   bands (ev):

    -2.2043  -0.7615   1.8081   3.3459   8.6587  11.3030  12.0963  12.1314
    14.7695  15.9494

          k =-0.0000 0.5357 0.8214 (  1587 PWs)   bands (ev):

    -2.2229  -0.7249   1.8542   3.2066   9.0789  11.0496  11.6681  12.2211
    14.9138  16.2110

          k =-0.0000 0.5000 0.8333 (  1589 PWs)   bands (ev):

    -2.2346  -0.6979   1.9155   3.0781   9.5161  10.6779  11.2294  12.4814
    15.0557  16.4634

          k = 0.0000 0.4643 0.8452 (  1587 PWs)   bands (ev):

    -2.2392  -0.6832   1.9910   2.9678   9.9228  10.2809  10.8581  12.7850
    15.1944  16.7018

          k =-0.0000 0.4286 0.8571 (  1589 PWs)   bands (ev):

    -2.2366  -0.6831   2.0801   2.8814   9.8826  10.0410  10.8090  13.1092
    15.3299  16.9212

          k = 0.0000 0.3929 0.8690 (  1590 PWs)   bands (ev):

    -2.2265  -0.6994   2.1816   2.8227   9.4912   9.7492  11.2014  13.4463
    15.4623  17.1157

          k =-0.0000 0.3571 0.8810 (  1592 PWs)   bands (ev):

    -2.2088  -0.7329   2.2942   2.7935   9.1113   9.3759  11.7053  13.7923
    15.5923  17.2785

          k = 0.0000 0.3214 0.8929 (  1591 PWs)   bands (ev):

    -2.1833  -0.7832   2.4162   2.7937   8.7463   9.0000  12.2410  14.1443
    15.7211  17.4012

          k =-0.0000 0.2857 0.9048 (  1590 PWs)   bands (ev):

    -2.1499  -0.8488   2.5454   2.8212   8.3992   8.6366  12.7927  14.4991
    15.8505  17.4739

          k = 0.0000 0.2500 0.9167 (  1590 PWs)   bands (ev):

    -2.1086  -0.9273   2.6792   2.8722   8.0736   8.2920  13.3536  14.8523
    15.9833  17.4896

          k = 0.0000 0.2143 0.9286 (  1596 PWs)   bands (ev):

    -2.0594  -1.0160   2.8140   2.9417   7.7736   7.9709  13.9187  15.1967
    16.1245  17.4527

          k = 0.0000 0.1786 0.9405 (  1590 PWs)   bands (ev):

    -2.0024  -1.1117   2.9453   3.0234   7.5041   7.6779  14.4816  15.5208
    16.2825  17.3796

          k = 0.0000 0.1429 0.9524 (  1594 PWs)   bands (ev):

    -1.9378  -1.2119   3.0675   3.1099   7.2715   7.4184  15.0328  15.8064
    16.4691  17.2898

          k = 0.0000 0.1071 0.9643 (  1590 PWs)   bands (ev):

    -1.8659  -1.3138   3.1736   3.1926   7.0831   7.1992  15.5532  16.0367
    16.6898  17.2023

          k = 0.0000 0.0714 0.9762 (  1590 PWs)   bands (ev):

    -1.7869  -1.4153   3.2563   3.2622   6.9467   7.0276  16.0019  16.2099
    16.9226  17.1426

          k = 0.0000 0.0357 0.9881 (  1588 PWs)   bands (ev):

    -1.7016  -1.5148   3.3087   3.3095   6.8700   6.9117  16.2974  16.3311
    17.1107  17.1464

          k = 0.0000 0.0000 1.0000 (  1588 PWs)   bands (ev):

    -1.6106  -1.6106   3.3265   3.3265   6.8580   6.8580  16.3836  16.3836
    17.1810  17.1810

          k = 0.0000 0.0000 0.9630 (  1588 PWs)   bands (ev):

    -1.8981  -1.3159   3.3320   3.3320   6.8007   6.9319  16.2372  16.2372
    17.3291  17.3291

          k = 0.0000 0.0000 0.9259 (  1596 PWs)   bands (ev):

    -2.1779  -1.0145   3.3485   3.3485   6.7595   7.0225  15.9406  15.9406
    17.6303  17.6303

          k = 0.0000 0.0000 0.8889 (  1596 PWs)   bands (ev):

    -2.4495  -0.7069   3.3761   3.3761   6.7341   7.1304  15.6049  15.6049
    17.8166  17.9718

          k = 0.0000 0.0000 0.8519 (  1600 PWs)   bands (ev):

    -2.7126  -0.3938   3.4146   3.4146   6.7240   7.2557  15.2581  15.2581
    17.5073  17.9312

          k = 0.0000 0.0000 0.8148 (  1600 PWs)   bands (ev):

    -2.9668  -0.0757   3.4640   3.4640   6.7289   7.3988  14.9085  14.9085
    17.2107  17.5725

          k = 0.0000 0.0000 0.7778 (  1596 PWs)   bands (ev):

    -3.2116   0.2467   3.5242   3.5242   6.7483   7.5598  14.5590  14.5590
    16.9268  17.2042

          k = 0.0000 0.0000 0.7407 (  1600 PWs)   bands (ev):

    -3.4468   0.5728   3.5952   3.5952   6.7818   7.7389  14.2111  14.2111
    16.6558  16.8279

          k = 0.0000 0.0000 0.7037 (  1584 PWs)   bands (ev):

    -3.6721   0.9020   3.6767   3.6767   6.8290   7.9359  13.8654  13.8654
    16.3977  16.4455

          k = 0.0000 0.0000 0.6667 (  1580 PWs)   bands (ev):

    -3.8873   1.2337   3.7687   3.7687   6.8892   8.1507  13.5222  13.5222
    16.0581  16.1525

          k = 0.0000 0.0000 0.6296 (  1580 PWs)   bands (ev):

    -4.0919   1.5670   3.8709   3.8709   6.9620   8.3828  13.1817  13.1817
    15.6675  15.9204

          k = 0.0000 0.0000 0.5926 (  1588 PWs)   bands (ev):

    -4.2859   1.9016   3.9831   3.9831   7.0467   8.6315  12.8442  12.8442
    15.2756  15.7013

          k = 0.0000 0.0000 0.5556 (  1596 PWs)   bands (ev):

    -4.4691   2.2366   4.1050   4.1050   7.1428   8.8955  12.5100  12.5100
    14.8848  15.4953

          k = 0.0000 0.0000 0.5185 (  1587 PWs)   bands (ev):

    -4.6411   2.5715   4.2363   4.2363   7.2493   9.1728  12.1792  12.1792
    14.4980  15.3024

          k = 0.0000 0.0000 0.4815 (  1587 PWs)   bands (ev):

    -4.8020   2.9056   4.3766   4.3766   7.3653   9.4602  11.8524  11.8524
    14.1191  15.1227

          k = 0.0000 0.0000 0.4444 (  1587 PWs)   bands (ev):

    -4.9515   3.2383   4.5253   4.5253   7.4899   9.7526  11.5301  11.5301
    13.7536  14.9562

          k = 0.0000 0.0000 0.4074 (  1571 PWs)   bands (ev):

    -5.0894   3.5688   4.6817   4.6817   7.6217  10.0416  11.2130  11.2130
    13.4105  14.8030

          k = 0.0000 0.0000 0.3704 (  1575 PWs)   bands (ev):

    -5.2158   3.8960   4.8450   4.8450   7.7592  10.3123  10.9021  10.9021
    13.1043  14.6629

          k = 0.0000 0.0000 0.3333 (  1559 PWs)   bands (ev):

    -5.3304   4.2188   5.0141   5.0141   7.9005  10.5385  10.5986  10.5986
    12.8609  14.5362

          k = 0.0000 0.0000 0.2963 (  1575 PWs)   bands (ev):

    -5.4332   4.5354   5.1874   5.1874   8.0433  10.3043  10.3043  10.6795
    12.7203  14.4227

          k = 0.0000 0.0000 0.2593 (  1571 PWs)   bands (ev):

    -5.5241   4.8437   5.3630   5.3630   8.1849  10.0214  10.0214  10.6970
    12.7195  14.3226

          k = 0.0000 0.0000 0.2222 (  1575 PWs)   bands (ev):

    -5.6030   5.1401   5.5381   5.5381   8.3219   9.7527   9.7527  10.5942
    12.8533  14.2357

          k = 0.0000 0.0000 0.1852 (  1571 PWs)   bands (ev):

    -5.6698   5.4199   5.7086   5.7086   8.4504   9.5026   9.5026  10.4162
    13.0741  14.1623

          k = 0.0000 0.0000 0.1481 (  1571 PWs)   bands (ev):

    -5.7246   5.6761   5.8691   5.8691   8.5657   9.2767   9.2767  10.2103
    13.3308  14.1021

          k = 0.0000 0.0000 0.1111 (  1579 PWs)   bands (ev):

    -5.7672   5.8988   6.0119   6.0119   8.6630   9.0829   9.0829  10.0112
    13.5832  14.0553

          k = 0.0000 0.0000 0.0741 (  1587 PWs)   bands (ev):

    -5.7977   6.0749   6.1269   6.1269   8.7371   8.9313   8.9313   9.8455
    13.7977  14.0219

          k = 0.0000 0.0000 0.0370 (  1603 PWs)   bands (ev):

    -5.8160   6.1894   6.2027   6.2027   8.7836   8.8335   8.8335   9.7350
    13.9433  14.0018

          k = 0.0000 0.0000 0.0000 (  1591 PWs)   bands (ev):

    -5.8222   6.2293   6.2293   6.2293   8.7995   8.7995   8.7995   9.6962
    13.9952  13.9952

          k =-0.0217 0.0217 0.0217 (  1603 PWs)   bands (ev):

    -5.8158   6.1557   6.2183   6.2183   8.8155   8.8155   8.8192   9.7377
    13.9717  13.9717

          k =-0.0435 0.0435 0.0435 (  1567 PWs)   bands (ev):

    -5.7969   5.9533   6.1864   6.1864   8.8544   8.8622   8.8622   9.8688
    13.9058  13.9058

          k =-0.0652 0.0652 0.0652 (  1570 PWs)   bands (ev):

    -5.7654   5.6602   6.1362   6.1362   8.8676   8.9358   8.9358  10.0905
    13.8085  13.8085

          k =-0.0870 0.0870 0.0870 (  1570 PWs)   bands (ev):

    -5.7215   5.3106   6.0716   6.0716   8.8468   9.0308   9.0308  10.3839
    13.6938  13.6938

          k =-0.1087 0.1087 0.1087 (  1573 PWs)   bands (ev):

    -5.6651   4.9277   5.9966   5.9966   8.7985   9.1408   9.1408  10.7228
    13.5755  13.5755

          k =-0.1304 0.1304 0.1304 (  1564 PWs)   bands (ev):

    -5.5964   4.5262   5.9149   5.9149   8.7319   9.2588   9.2588  11.0871
    13.4659  13.4659

          k =-0.1522 0.1522 0.1522 (  1570 PWs)   bands (ev):

    -5.5156   4.1153   5.8297   5.8297   8.6543   9.3776   9.3776  11.4640
    13.3760  13.3760

          k =-0.1739 0.1739 0.1739 (  1570 PWs)   bands (ev):

    -5.4228   3.7009   5.7435   5.7435   8.5708   9.4897   9.4897  11.8456
    13.3154  13.3154

          k =-0.1957 0.1957 0.1957 (  1576 PWs)   bands (ev):

    -5.3184   3.2872   5.6584   5.6584   8.4849   9.5886   9.5886  12.2266
    13.2925  13.2925

          k =-0.2174 0.2174 0.2174 (  1579 PWs)   bands (ev):

    -5.2026   2.8774   5.5758   5.5758   8.3993   9.6685   9.6685  12.6029
    13.3139  13.3139

          k =-0.2391 0.2391 0.2391 (  1582 PWs)   bands (ev):

    -5.0760   2.4739   5.4969   5.4969   8.3160   9.7258   9.7258  12.9692
    13.3839  13.3839

          k =-0.2609 0.2609 0.2609 (  1582 PWs)   bands (ev):

    -4.9389   2.0788   5.4227   5.4227   8.2365   9.7596   9.7596  13.3164
    13.5040  13.5040

          k =-0.2826 0.2826 0.2826 (  1579 PWs)   bands (ev):

    -4.7923   1.6939   5.3538   5.3538   8.1617   9.7716   9.7716  13.6262
    13.6725  13.6725

          k =-0.3043 0.3043 0.3043 (  1591 PWs)   bands (ev):

    -4.6371   1.3211   5.2907   5.2907   8.0926   9.7655   9.7655  13.8643
    13.8860  13.8860

          k =-0.3261 0.3261 0.3261 (  1591 PWs)   bands (ev):

    -4.4747   0.9626   5.2336   5.2336   8.0297   9.7460   9.7460  13.9951
    14.1398  14.1398

          k =-0.3478 0.3478 0.3478 (  1597 PWs)   bands (ev):

    -4.3070   0.6208   5.1830   5.1830   7.9735   9.7179   9.7179  14.0277
    14.4287  14.4287

          k =-0.3696 0.3696 0.3696 (  1591 PWs)   bands (ev):

    -4.1368   0.2988   5.1389   5.1389   7.9243   9.6855   9.6855  14.0062
    14.7480  14.7480

          k =-0.3913 0.3913 0.3913 (  1586 PWs)   bands (ev):

    -3.9680   0.0011   5.1014   5.1014   7.8824   9.6526   9.6526  13.9643
    15.0930  15.0930

          k =-0.4130 0.4130 0.4130 (  1586 PWs)   bands (ev):

    -3.8062  -0.2664   5.0707   5.0707   7.8479   9.6221   9.6221  13.9191
    15.4594  15.4594

          k =-0.4348 0.4348 0.4348 (  1580 PWs)   bands (ev):

    -3.6599  -0.4953   5.0468   5.0468   7.8209   9.5962   9.5962  13.8791
    15.8415  15.8415

          k =-0.4565 0.4565 0.4565 (  1574 PWs)   bands (ev):

    -3.5400  -0.6742   5.0297   5.0297   7.8017   9.5766   9.5766  13.8484
    16.2293  16.2293

          k =-0.4783 0.4783 0.4783 (  1568 PWs)   bands (ev):

    -3.4600  -0.7898   5.0195   5.0195   7.7900   9.5645   9.5645  13.8293
    16.5916  16.5916

          k =-0.5000 0.5000 0.5000 (  1568 PWs)   bands (ev):

    -3.4316  -0.8299   5.0160   5.0160   7.7862   9.5603   9.5603  13.8228
    16.7851  16.7851

     Writing output data file Si.save

     init_run     :      0.09s CPU      0.09s WALL (       1 calls)
     electrons    :     23.72s CPU     23.86s WALL (       1 calls)

     Called by init_run:
     wfcinit      :      0.00s CPU      0.00s WALL (       1 calls)
     wfcinit:atom :      0.03s CPU      0.03s WALL (     100 calls)
     wfcinit:wfcr :      1.36s CPU      1.45s WALL (     100 calls)
     potinit      :      0.01s CPU      0.01s WALL (       1 calls)

     Called by electrons:
     c_bands      :     23.72s CPU     23.86s WALL (       1 calls)
     v_of_rho     :      0.00s CPU      0.01s WALL (       1 calls)
     v_h          :      0.00s CPU      0.00s WALL (       1 calls)
     v_xc         :      0.00s CPU      0.00s WALL (       1 calls)

     Called by c_bands:
     init_us_2    :      0.04s CPU      0.03s WALL (     100 calls)
     cegterg      :     22.14s CPU     22.21s WALL (     137 calls)

     Called by sum_band:

     Called by *egterg:
     h_psi        :     17.59s CPU     17.72s WALL (    2280 calls)
     g_psi        :      0.14s CPU      0.15s WALL (    2043 calls)
     cdiaghg      :      0.70s CPU      0.69s WALL (    2143 calls)
     cegterg:over :      2.13s CPU      2.19s WALL (    2043 calls)
     cegterg:upda :      1.66s CPU      1.63s WALL (    2043 calls)
     cegterg:last :      0.95s CPU      0.92s WALL (     455 calls)

     Called by h_psi:
     h_psi:pot    :     17.44s CPU     17.62s WALL (    2280 calls)
     h_psi:calbec :      0.39s CPU      0.44s WALL (    2280 calls)
     vloc_psi     :     16.58s CPU     16.73s WALL (    2280 calls)
     add_vuspsi   :      0.46s CPU      0.44s WALL (    2280 calls)

     General routines
     calbec       :      0.39s CPU      0.43s WALL (    2280 calls)
     fft          :      0.01s CPU      0.01s WALL (       4 calls)
     fftw         :     14.90s CPU     15.04s WALL (   28572 calls)
     davcio       :      0.09s CPU      0.09s WALL (     200 calls)

     Parallel routines

     PWSCF        :    23.92s CPU        24.23s WALL


   This run was terminated on:  15:44:46   3Jul2018            

=------------------------------------------------------------------------------=
   JOB DONE.
=------------------------------------------------------------------------------=
