
     Program PWSCF v.6.3 starts on 17Apr2019 at 17: 5:46 

     This program is part of the open-source Quantum ESPRESSO suite
     for quantum simulation of materials; please cite
         "P. Giannozzi et al., J. Phys.:Condens. Matter 21 395502 (2009);
         "P. Giannozzi et al., J. Phys.:Condens. Matter 29 465901 (2017);
          URL http://www.quantum-espresso.org", 
     in publications or presentations arising from this work. More details at
     http://www.quantum-espresso.org/quote

     Parallel version (MPI & OpenMP), running on     544 processor cores
     Number of MPI processes:               136
     Threads/MPI process:                     4

     MPI processes distributed on     2 nodes
     K-points division:     npool     =       4
     R & G space division:  proc/nbgrp/npool/nimage =      34
     Waiting for input...
     Reading input from standard input

     Current dimensions of program PWSCF are:
     Max number of different atomic species (ntypx) = 10
     Max number of k-points (npk) =  40000
     Max angular momentum in pseudopotentials (lmaxx) =  3
               file Hg.rel-pbe-n-rrkjus_psl.1.0.0.UPF: wavefunction(s)  6S renormalized
               file Cd.rel-pbe-n-rrkjus_psl.1.0.0.UPF: wavefunction(s)  4D 4D renormalized
               file Te.rel-pbe-n-rrkjus_psl.1.0.0.UPF: wavefunction(s)  5S renormalized

     Subspace diagonalization in iterative solution of the eigenvalue problem:
     one sub-group per band group will be used
     scalapack distributed-memory algorithm (size of sub-group:  4*  4 procs)

 
     Parallelization info
     --------------------
     sticks:   dense  smooth     PW     G-vecs:    dense   smooth      PW
     Min         509     204     53                44352    11243    1501
     Max         510     205     54                44357    11246    1504
     Sum       17329    6961   1813              1508069   382319   51109
 


     bravais-lattice index     =            2
     lattice parameter (alat)  =      25.0870  a.u.
     unit-cell volume          =    3947.1733 (a.u.)^3
     number of atoms/cell      =           16
     number of atomic types    =            3
     number of electrons       =       144.00
     number of Kohn-Sham states=          172
     kinetic-energy cutoff     =      80.0000  Ry
     charge density cutoff     =     800.0000  Ry
     convergence threshold     =      1.0E-08
     mixing beta               =       0.7000
     number of iterations used =            8  plain     mixing
     Exchange-correlation      = PBE ( 1  4  3  4 0 0)
     nstep                     =           50

     Non magnetic calculation with spin-orbit


     celldm(1)=  25.087000  celldm(2)=   0.000000  celldm(3)=   0.000000
     celldm(4)=   0.000000  celldm(5)=   0.000000  celldm(6)=   0.000000

     crystal axes: (cart. coord. in units of alat)
               a(1) = (  -0.500000   0.000000   0.500000 )  
               a(2) = (   0.000000   0.500000   0.500000 )  
               a(3) = (  -0.500000   0.500000   0.000000 )  

     reciprocal axes: (cart. coord. in units 2 pi/alat)
               b(1) = ( -1.000000 -1.000000  1.000000 )  
               b(2) = (  1.000000  1.000000  1.000000 )  
               b(3) = ( -1.000000  1.000000 -1.000000 )  


     PseudoPot. # 1 for Hg read from file:
     /marconi/home/userexternal/dgrassan/PSEUDO/Hg.rel-pbe-n-rrkjus_psl.1.0.0.UPF
     MD5 check sum: 39c674894763a5b8dd8ffed83229a533
     Pseudo is Ultrasoft + core correction, Zval = 12.0
     Generated using "atomic" code by A. Dal Corso v.6.3
     Using radial grid of 1279 points, 10 beta functions with: 
                l(1) =   0
                l(2) =   0
                l(3) =   1
                l(4) =   1
                l(5) =   1
                l(6) =   1
                l(7) =   2
                l(8) =   2
                l(9) =   2
               l(10) =   2
     Q(r) pseudized with 0 coefficients 


     PseudoPot. # 2 for Cd read from file:
     /marconi/home/userexternal/dgrassan/PSEUDO/Cd.rel-pbe-n-rrkjus_psl.1.0.0.UPF
     MD5 check sum: f55a83cceeb01967e8d662641edf05f4
     Pseudo is Ultrasoft + core correction, Zval = 12.0
     Generated using "atomic" code by A. Dal Corso v.6.3
     Using radial grid of 1239 points, 10 beta functions with: 
                l(1) =   0
                l(2) =   0
                l(3) =   1
                l(4) =   1
                l(5) =   1
                l(6) =   1
                l(7) =   2
                l(8) =   2
                l(9) =   2
               l(10) =   2
     Q(r) pseudized with 0 coefficients 


     PseudoPot. # 3 for Te read from file:
     /marconi/home/userexternal/dgrassan/PSEUDO/Te.rel-pbe-n-rrkjus_psl.1.0.0.UPF
     MD5 check sum: 7fd30b6833abd190471e4dcc2367351b
     Pseudo is Ultrasoft + core correction, Zval =  6.0
     Generated using "atomic" code by A. Dal Corso v.6.3
     Using radial grid of 1245 points, 10 beta functions with: 
                l(1) =   0
                l(2) =   0
                l(3) =   1
                l(4) =   1
                l(5) =   1
                l(6) =   1
                l(7) =   2
                l(8) =   2
                l(9) =   2
               l(10) =   2
     Q(r) pseudized with 0 coefficients 


     atomic species   valence    mass     pseudopotential
        Hg            12.00     1.00000     Hg( 1.00)
        Cd            12.00     1.00000     Cd( 1.00)
        Te             6.00     1.00000     Te( 1.00)

      2 Sym. Ops. (no inversion) found


                                    s                        frac. trans.

      isym =  1     identity                                     

 cryst.   s( 1) = (     1          0          0      )
                  (     0          1          0      )
                  (     0          0          1      )

 cart.    s( 1) = (  1.0000000  0.0000000  0.0000000 )
                  (  0.0000000  1.0000000  0.0000000 )
                  (  0.0000000  0.0000000  1.0000000 )


      isym =  2     inv. 180 deg rotation - cart. axis [0,1,-1]  

 cryst.   s( 2) = (     0          0          1      )
                  (     0          1          0      )
                  (     1          0          0      )

 cart.    s( 2) = (  1.0000000  0.0000000  0.0000000 )
                  (  0.0000000  0.0000000  1.0000000 )
                  (  0.0000000  1.0000000  0.0000000 )


     double point group C_s (m)    
     there are  4 classes and  2 irreducible representations
     the character table:

       E     -E    s     -s   
                              
G_3    1.00 -1.00  0.00  0.00
G_4    1.00 -1.00  0.00  0.00

     imaginary part

       E     -E    s     -s   
                              
G_3    0.00  0.00  1.00 -1.00
G_4    0.00  0.00 -1.00  1.00

     the symmetry operations in each class and the name of the first element:

     E             1
          identity                                               
     -E           -1
          identity E                                             
     s             2
          inv. 180 deg rotation - cart. axis [0,1,-1]            
     -s           -2
          inv. 180 deg rotation - cart. axis [0,1,-1] E          

   Cartesian axes

     site n.     atom                  positions (alat units)
         1           Cd  tau(   1) = (   0.0000000   0.0000000   0.0000000  )
         2           Te  tau(   2) = (   0.1248156   0.1248156   0.1248156  )
         3           Hg  tau(   3) = (  -0.2496313   0.2496313   0.0000000  )
         4           Te  tau(   4) = (  -0.1248156   0.3744469   0.1248156  )
         5           Hg  tau(   5) = (   0.0000000   0.2496313   0.2496313  )
         6           Te  tau(   6) = (   0.1248156   0.3744469   0.3744469  )
         7           Hg  tau(   7) = (  -0.2496313   0.4992626   0.2496313  )
         8           Te  tau(   8) = (  -0.1248156   0.6240782   0.3744469  )
         9           Hg  tau(   9) = (  -0.2496313   0.0000000   0.2496313  )
        10           Te  tau(  10) = (  -0.1248156   0.1248156   0.3744469  )
        11           Hg  tau(  11) = (  -0.4992626   0.2496313   0.2496313  )
        12           Te  tau(  12) = (  -0.3744469   0.3744469   0.3744469  )
        13           Hg  tau(  13) = (  -0.2496313   0.2496313   0.4992626  )
        14           Te  tau(  14) = (  -0.1248156   0.3744469   0.6240782  )
        15           Hg  tau(  15) = (  -0.4992626   0.4992626   0.4992626  )
        16           Te  tau(  16) = (  -0.3744469   0.6240782   0.6240782  )

   Crystallographic axes

     site n.     atom                  positions (cryst. coord.)
         1           Cd  tau(   1) = (  0.0000000  0.0000000  0.0000000  )
         2           Te  tau(   2) = ( -0.1248156  0.3744469 -0.1248156  )
         3           Hg  tau(   3) = (  0.0000000  0.0000000  0.4992626  )
         4           Te  tau(   4) = ( -0.1248156  0.3744469  0.3744469  )
         5           Hg  tau(   5) = (  0.0000000  0.4992626  0.0000000  )
         6           Te  tau(   6) = ( -0.1248156  0.8737095 -0.1248156  )
         7           Hg  tau(   7) = (  0.0000000  0.4992626  0.4992626  )
         8           Te  tau(   8) = ( -0.1248156  0.8737095  0.3744469  )
         9           Hg  tau(   9) = (  0.4992626  0.0000000  0.0000000  )
        10           Te  tau(  10) = (  0.3744469  0.3744469 -0.1248156  )
        11           Hg  tau(  11) = (  0.4992626  0.0000000  0.4992626  )
        12           Te  tau(  12) = (  0.3744469  0.3744469  0.3744469  )
        13           Hg  tau(  13) = (  0.4992626  0.4992626  0.0000000  )
        14           Te  tau(  14) = (  0.3744469  0.8737095 -0.1248156  )
        15           Hg  tau(  15) = (  0.4992626  0.4992626  0.4992626  )
        16           Te  tau(  16) = (  0.3744469  0.8737095  0.3744469  )

     number of k points=    10  Fermi-Dirac smearing, width (Ry)=  0.0017
                       cart. coord. in units 2pi/alat
        k(    1) = (  -0.2500000   0.2500000   0.2500000), wk =   0.0625000
        k(    2) = (   0.2500000  -0.2500000   0.7500000), wk =   0.1250000
        k(    3) = (   0.2500000   0.2500000  -0.2500000), wk =   0.1250000
        k(    4) = (  -0.2500000  -0.2500000  -0.2500000), wk =   0.0625000
        k(    5) = (  -0.2500000  -0.2500000  -0.7500000), wk =   0.1250000
        k(    6) = (   0.2500000   0.2500000  -0.7500000), wk =   0.1250000
        k(    7) = (   0.2500000  -0.2500000  -0.7500000), wk =   0.1250000
        k(    8) = (   0.7500000   0.2500000   0.2500000), wk =   0.0625000
        k(    9) = (  -0.7500000   0.2500000  -0.2500000), wk =   0.1250000
        k(   10) = (   0.7500000  -0.2500000  -0.2500000), wk =   0.0625000

                       cryst. coord.
        k(    1) = (   0.2500000   0.2500000   0.2500000), wk =   0.0625000
        k(    2) = (   0.2500000   0.2500000  -0.2500000), wk =   0.1250000
        k(    3) = (  -0.2500000   0.0000000   0.0000000), wk =   0.1250000
        k(    4) = (   0.0000000  -0.2500000   0.0000000), wk =   0.0625000
        k(    5) = (  -0.2500000  -0.5000000   0.0000000), wk =   0.1250000
        k(    6) = (  -0.5000000  -0.2500000   0.0000000), wk =   0.1250000
        k(    7) = (  -0.5000000  -0.5000000  -0.2500000), wk =   0.1250000
        k(    8) = (  -0.2500000   0.2500000  -0.2500000), wk =   0.0625000
        k(    9) = (   0.2500000   0.0000000   0.5000000), wk =   0.1250000
        k(   10) = (  -0.5000000  -0.2500000  -0.5000000), wk =   0.0625000

     Dense  grid:  1508069 G-vectors     FFT dimensions: ( 160, 160, 160)

     Smooth grid:   382319 G-vectors     FFT dimensions: ( 108, 108, 108)

     Dynamical RAM for                 wfc:       7.36 MB

     Dynamical RAM for     wfc (w. buffer):      29.44 MB

     Dynamical RAM for           str. fact:       2.03 MB

     Dynamical RAM for           local pot:       0.00 MB

     Dynamical RAM for          nlocal pot:      11.64 MB

     Dynamical RAM for                qrad:      71.11 MB

     Dynamical RAM for          rho,v,vnew:      19.84 MB

     Dynamical RAM for               rhoin:       6.61 MB

     Dynamical RAM for            rho*nmix:      43.32 MB

     Dynamical RAM for           G-vectors:       2.62 MB

     Dynamical RAM for          h,s,v(r/c):       1.35 MB

     Dynamical RAM for          <psi|beta>:       2.86 MB

     Dynamical RAM for                 psi:      29.44 MB

     Dynamical RAM for                hpsi:      29.44 MB

     Dynamical RAM for                spsi:      29.44 MB

     Dynamical RAM for      wfcinit/wfcrot:      14.34 MB

     Dynamical RAM for           addusdens:     105.08 MB

     Dynamical RAM for          addusforce:     111.55 MB

     Estimated static dynamical RAM per process >     197.12 MB

     Estimated max dynamical RAM per process >     308.68 MB

     Estimated total dynamical RAM >      41.00 GB

     Initial potential from superposition of free atoms

     starting charge  143.99384, renormalised to  144.00000
     Starting wfcs are  208 randomized atomic wfcs

     total cpu time spent up to now is       55.9 secs

     Self-consistent Calculation

     iteration #  1     ecut=    80.00 Ry     beta= 0.70
     Davidson diagonalization with overlap
     ethr =  1.00E-02,  avg # of iterations =  3.8

     Threshold (ethr) on eigenvalues was too large:
     Diagonalizing with lowered threshold

     Davidson diagonalization with overlap
     ethr =  2.40E-04,  avg # of iterations =  5.3

     total cpu time spent up to now is      162.9 secs

     total energy              =   -1026.52110919 Ry
     Harris-Foulkes estimate   =   -1026.79825426 Ry
     estimated scf accuracy    <       0.38268080 Ry

     iteration #  2     ecut=    80.00 Ry     beta= 0.70
     Davidson diagonalization with overlap
     ethr =  2.66E-04,  avg # of iterations =  6.9

     total cpu time spent up to now is      233.6 secs

     total energy              =   -1026.60221068 Ry
     Harris-Foulkes estimate   =   -1026.79603844 Ry
     estimated scf accuracy    <       0.35468739 Ry

     iteration #  3     ecut=    80.00 Ry     beta= 0.70
     Davidson diagonalization with overlap
     ethr =  2.46E-04,  avg # of iterations =  3.1

     total cpu time spent up to now is      280.0 secs

     total energy              =   -1026.68467152 Ry
     Harris-Foulkes estimate   =   -1026.69516270 Ry
     estimated scf accuracy    <       0.02079736 Ry

     iteration #  4     ecut=    80.00 Ry     beta= 0.70
     Davidson diagonalization with overlap
     ethr =  1.44E-05,  avg # of iterations =  8.4

     total cpu time spent up to now is      367.2 secs

     total energy              =   -1026.69115359 Ry
     Harris-Foulkes estimate   =   -1026.69235257 Ry
     estimated scf accuracy    <       0.00304813 Ry

     iteration #  5     ecut=    80.00 Ry     beta= 0.70
     Davidson diagonalization with overlap
     ethr =  2.12E-06,  avg # of iterations =  6.0

     total cpu time spent up to now is      435.8 secs

     total energy              =   -1026.69188470 Ry
     Harris-Foulkes estimate   =   -1026.69228768 Ry
     estimated scf accuracy    <       0.00087119 Ry

     iteration #  6     ecut=    80.00 Ry     beta= 0.70
     Davidson diagonalization with overlap
     ethr =  6.05E-07,  avg # of iterations =  3.1

     total cpu time spent up to now is      481.3 secs

     total energy              =   -1026.69213036 Ry
     Harris-Foulkes estimate   =   -1026.69215558 Ry
     estimated scf accuracy    <       0.00005363 Ry

     iteration #  7     ecut=    80.00 Ry     beta= 0.70
     Davidson diagonalization with overlap
     ethr =  3.72E-08,  avg # of iterations =  5.0

     total cpu time spent up to now is      548.9 secs

     total energy              =   -1026.69217590 Ry
     Harris-Foulkes estimate   =   -1026.69217875 Ry
     estimated scf accuracy    <       0.00000625 Ry

     iteration #  8     ecut=    80.00 Ry     beta= 0.70
     Davidson diagonalization with overlap
     ethr =  4.34E-09,  avg # of iterations =  4.0

     total cpu time spent up to now is      599.2 secs

     total energy              =   -1026.69217684 Ry
     Harris-Foulkes estimate   =   -1026.69217767 Ry
     estimated scf accuracy    <       0.00000188 Ry

     iteration #  9     ecut=    80.00 Ry     beta= 0.70
     Davidson diagonalization with overlap
     ethr =  1.31E-09,  avg # of iterations =  4.0

     total cpu time spent up to now is      658.3 secs

     total energy              =   -1026.69217753 Ry
     Harris-Foulkes estimate   =   -1026.69217762 Ry
     estimated scf accuracy    <       0.00000023 Ry

     iteration # 10     ecut=    80.00 Ry     beta= 0.70
     Davidson diagonalization with overlap
     ethr =  1.57E-10,  avg # of iterations =  3.9

     total cpu time spent up to now is      712.5 secs

     total energy              =   -1026.69217763 Ry
     Harris-Foulkes estimate   =   -1026.69217764 Ry
     estimated scf accuracy    <       0.00000004 Ry

     iteration # 11     ecut=    80.00 Ry     beta= 0.70
     Davidson diagonalization with overlap
     ethr =  2.51E-11,  avg # of iterations =  3.5

     total cpu time spent up to now is      768.6 secs

     End of self-consistent calculation

          k =-0.2500 0.2500 0.2500 ( 47657 PWs)   bands (ev):

    -6.2169  -6.2168  -5.8976  -5.8975  -5.8128  -5.8108  -5.8095  -5.8086
    -5.7859  -5.7857  -5.6925  -5.6894  -5.6894  -5.6887  -5.6797  -5.6797
    -3.5088  -3.5087  -3.5078  -3.5063  -2.8707  -2.8705  -2.8480  -2.8476
    -2.8461  -2.8457  -2.6215  -2.6157  -2.6033  -2.5993  -2.5982  -2.5875
    -2.5824  -2.5810  -2.5670  -2.5603  -2.5561  -2.5354  -2.5269  -2.5264
    -2.4461  -2.4254  -2.4216  -2.4193  -2.3742  -2.3738  -2.3597  -2.3591
    -2.2890  -2.2515  -2.2494  -2.2464  -2.2110  -2.2105  -1.1365  -1.1359
    -1.0208  -1.0204  -1.0055  -0.9936  -0.9927  -0.9747  -0.9365  -0.9346
    -0.9218  -0.9010  -0.9004  -0.8577  -0.8568  -0.8545  -0.7694  -0.7637
    -0.7594  -0.7585  -0.7253  -0.7130  -0.7106  -0.6920  -0.6771  -0.6738
    -0.6720  -0.6705  -0.6683  -0.6560  -0.5910  -0.5888  -0.5355  -0.5157
    -0.4917  -0.4912  -0.4802  -0.4801  -0.4605  -0.4561  -0.4256  -0.4253
     0.2209   0.2439   0.2498   0.2554   0.2985   0.2986   0.3286   0.3468
     0.3511   0.3812   0.6479   0.6494   0.9601   0.9603   2.8884   2.8893
     2.8894   2.9770   2.9861   2.9870   3.2614   3.3058   3.3064   3.3328
     3.3420   3.3438   3.3649   3.3662   3.5062   3.5065   3.5279   3.5713
     3.6048   3.6064   4.0741   4.0742   4.1029   4.1162   4.1433   4.1434
     4.1709   4.1711   4.6013   4.6432   4.6462   4.6528   5.1828   5.2394
     5.7658   5.7693   5.9415   5.9416   6.4852   6.5389   6.5393   6.6100
     6.7453   6.7455   7.1053   7.1772   7.1788   7.2765   7.5678   7.5699
     8.1140   8.1623   8.1660   8.2298   8.2462   8.2482   8.9254   8.9307
     9.6584   9.6616   9.6768   9.7118

     occupation numbers 
     1.0000   1.0000   1.0000   1.0000   1.0000   1.0000   1.0000   1.0000
     1.0000   1.0000   1.0000   1.0000   1.0000   1.0000   1.0000   1.0000
     1.0000   1.0000   1.0000   1.0000   1.0000   1.0000   1.0000   1.0000
     1.0000   1.0000   1.0000   1.0000   1.0000   1.0000   1.0000   1.0000
     1.0000   1.0000   1.0000   1.0000   1.0000   1.0000   1.0000   1.0000
     1.0000   1.0000   1.0000   1.0000   1.0000   1.0000   1.0000   1.0000
     1.0000   1.0000   1.0000   1.0000   1.0000   1.0000   1.0000   1.0000
     1.0000   1.0000   1.0000   1.0000   1.0000   1.0000   1.0000   1.0000
     1.0000   1.0000   1.0000   1.0000   1.0000   1.0000   1.0000   1.0000
     1.0000   1.0000   1.0000   1.0000   1.0000   1.0000   1.0000   1.0000
     1.0000   1.0000   1.0000   1.0000   1.0000   1.0000   1.0000   1.0000
     1.0000   1.0000   1.0000   1.0000   1.0000   1.0000   1.0000   1.0000
     1.0000   1.0000   1.0000   1.0000   1.0000   1.0000   1.0000   1.0000
     1.0000   1.0000   1.0000   1.0000   1.0000   1.0000   1.0000   1.0000
     1.0000   1.0000   1.0000   1.0000   1.0000   1.0000   1.0000   1.0000
     1.0000   1.0000   1.0000   1.0000   1.0000   1.0000   1.0000   1.0000
     1.0000   1.0000   1.0000   1.0000   1.0000   1.0000   1.0000   1.0000
     1.0000   1.0000   1.0000   1.0000   1.0000   1.0000   1.0000   1.0000
     0.0000   0.0000   0.0000   0.0000   0.0000   0.0000   0.0000   0.0000
     0.0000   0.0000   0.0000   0.0000   0.0000   0.0000   0.0000   0.0000
     0.0000   0.0000   0.0000   0.0000   0.0000   0.0000   0.0000   0.0000
     0.0000   0.0000   0.0000   0.0000

          k = 0.2500-0.2500 0.7500 ( 47670 PWs)   bands (ev):

    -6.0755  -6.0749  -5.9601  -5.9578  -5.8631  -5.8608  -5.8130  -5.8115
    -5.7842  -5.7816  -5.7399  -5.7338  -5.6926  -5.6910  -5.6822  -5.6782
    -3.5132  -3.5118  -3.5083  -3.5072  -2.8747  -2.8741  -2.8497  -2.8472
    -2.8455  -2.8442  -2.6109  -2.6051  -2.5844  -2.5824  -2.5721  -2.5644
    -2.5582  -2.5564  -2.5460  -2.5407  -2.5371  -2.5247  -2.5086  -2.5028
    -2.5002  -2.4921  -2.4889  -2.4499  -2.4401  -2.4382  -2.4269  -2.4121
    -2.3713  -2.2976  -2.2739  -2.2054  -2.1738  -2.1578  -1.0996  -1.0890
    -1.0441  -1.0291  -1.0038  -1.0006  -0.9714  -0.9675  -0.9340  -0.9269
    -0.9223  -0.9149  -0.8859  -0.8845  -0.8248  -0.7986  -0.7911  -0.7777
    -0.7726  -0.7601  -0.7558  -0.7497  -0.7340  -0.7313  -0.7162  -0.7151
    -0.6932  -0.6775  -0.6683  -0.6539  -0.6495  -0.6351  -0.6232  -0.6180
    -0.6003  -0.5738  -0.5354  -0.4912  -0.4840  -0.4548  -0.3786  -0.3621
     0.1283   0.1502   0.2611   0.3227   0.3878   0.5076   0.6590   0.6774
     0.8881   0.8914   1.2091   1.2590   1.5326   1.5889   2.3119   2.3321
     2.6066   2.6180   2.6651   2.7473   2.7661   2.7873   3.0139   3.0253
     3.1475   3.1600   3.3081   3.3120   3.3444   3.3657   3.3927   3.4846
     3.6574   3.7093   3.7609   3.7954   3.8624   3.8862   3.9036   3.9318
     3.9881   3.9926   4.1268   4.1909   4.4998   4.5713   4.5997   4.6404
     6.4762   6.5838   6.6230   6.7164   7.0652   7.1062   7.1720   7.2028
     7.2811   7.3445   7.4127   7.4200   7.6455   7.6822   8.0325   8.0375
     8.3308   8.4956   8.6502   8.8876   9.2164   9.2295   9.3174   9.3334
     9.3563   9.3764   9.5380   9.5562

     occupation numbers 
     1.0000   1.0000   1.0000   1.0000   1.0000   1.0000   1.0000   1.0000
     1.0000   1.0000   1.0000   1.0000   1.0000   1.0000   1.0000   1.0000
     1.0000   1.0000   1.0000   1.0000   1.0000   1.0000   1.0000   1.0000
     1.0000   1.0000   1.0000   1.0000   1.0000   1.0000   1.0000   1.0000
     1.0000   1.0000   1.0000   1.0000   1.0000   1.0000   1.0000   1.0000
     1.0000   1.0000   1.0000   1.0000   1.0000   1.0000   1.0000   1.0000
     1.0000   1.0000   1.0000   1.0000   1.0000   1.0000   1.0000   1.0000
     1.0000   1.0000   1.0000   1.0000   1.0000   1.0000   1.0000   1.0000
     1.0000   1.0000   1.0000   1.0000   1.0000   1.0000   1.0000   1.0000
     1.0000   1.0000   1.0000   1.0000   1.0000   1.0000   1.0000   1.0000
     1.0000   1.0000   1.0000   1.0000   1.0000   1.0000   1.0000   1.0000
     1.0000   1.0000   1.0000   1.0000   1.0000   1.0000   1.0000   1.0000
     1.0000   1.0000   1.0000   1.0000   1.0000   1.0000   1.0000   1.0000
     1.0000   1.0000   1.0000   1.0000   1.0000   1.0000   1.0000   1.0000
     1.0000   1.0000   1.0000   1.0000   1.0000   1.0000   1.0000   1.0000
     1.0000   1.0000   1.0000   1.0000   1.0000   1.0000   1.0000   1.0000
     1.0000   1.0000   1.0000   1.0000   1.0000   1.0000   1.0000   1.0000
     1.0000   1.0000   1.0000   1.0000   1.0000   1.0000   1.0000   1.0000
     0.0000   0.0000   0.0000   0.0000   0.0000   0.0000   0.0000   0.0000
     0.0000   0.0000   0.0000   0.0000   0.0000   0.0000   0.0000   0.0000
     0.0000   0.0000   0.0000   0.0000   0.0000   0.0000   0.0000   0.0000
     0.0000   0.0000   0.0000   0.0000

          k = 0.2500 0.2500-0.2500 ( 47657 PWs)   bands (ev):

    -6.2171  -6.2170  -5.8958  -5.8957  -5.8161  -5.8146  -5.8102  -5.8090
    -5.7834  -5.7832  -5.6914  -5.6897  -5.6891  -5.6852  -5.6829  -5.6809
    -3.5098  -3.5097  -3.5068  -3.5053  -2.8709  -2.8708  -2.8474  -2.8471
    -2.8464  -2.8460  -2.6217  -2.6158  -2.6044  -2.5985  -2.5971  -2.5870
    -2.5837  -2.5813  -2.5674  -2.5593  -2.5553  -2.5361  -2.5269  -2.5262
    -2.4473  -2.4252  -2.4208  -2.4194  -2.3745  -2.3739  -2.3593  -2.3587
    -2.2887  -2.2512  -2.2497  -2.2464  -2.2113  -2.2107  -1.1365  -1.1360
    -1.0202  -1.0197  -1.0060  -0.9936  -0.9928  -0.9757  -0.9379  -0.9342
    -0.9209  -0.9013  -0.9004  -0.8570  -0.8565  -0.8548  -0.7693  -0.7630
    -0.7600  -0.7588  -0.7240  -0.7109  -0.7104  -0.6922  -0.6768  -0.6739
    -0.6722  -0.6713  -0.6690  -0.6558  -0.5915  -0.5886  -0.5354  -0.5153
    -0.4924  -0.4920  -0.4810  -0.4804  -0.4604  -0.4554  -0.4257  -0.4254
     0.2207   0.2419   0.2501   0.2569   0.2974   0.2998   0.3279   0.3447
     0.3502   0.3814   0.6511   0.6517   0.9592   0.9596   2.8881   2.8887
     2.8893   2.9769   2.9859   2.9869   3.2626   3.3058   3.3066   3.3334
     3.3424   3.3437   3.3657   3.3669   3.5055   3.5061   3.5275   3.5712
     3.6041   3.6057   4.0750   4.0754   4.1024   4.1157   4.1429   4.1431
     4.1706   4.1709   4.6020   4.6428   4.6458   4.6536   5.1825   5.2392
     5.7644   5.7676   5.9440   5.9441   6.4853   6.5387   6.5407   6.6104
     6.7427   6.7451   7.1048   7.1769   7.1791   7.2763   7.5680   7.5704
     8.1137   8.1623   8.1661   8.2296   8.2461   8.2483   8.9250   8.9306
     9.6591   9.6637   9.6783   9.7125

     occupation numbers 
     1.0000   1.0000   1.0000   1.0000   1.0000   1.0000   1.0000   1.0000
     1.0000   1.0000   1.0000   1.0000   1.0000   1.0000   1.0000   1.0000
     1.0000   1.0000   1.0000   1.0000   1.0000   1.0000   1.0000   1.0000
     1.0000   1.0000   1.0000   1.0000   1.0000   1.0000   1.0000   1.0000
     1.0000   1.0000   1.0000   1.0000   1.0000   1.0000   1.0000   1.0000
     1.0000   1.0000   1.0000   1.0000   1.0000   1.0000   1.0000   1.0000
     1.0000   1.0000   1.0000   1.0000   1.0000   1.0000   1.0000   1.0000
     1.0000   1.0000   1.0000   1.0000   1.0000   1.0000   1.0000   1.0000
     1.0000   1.0000   1.0000   1.0000   1.0000   1.0000   1.0000   1.0000
     1.0000   1.0000   1.0000   1.0000   1.0000   1.0000   1.0000   1.0000
     1.0000   1.0000   1.0000   1.0000   1.0000   1.0000   1.0000   1.0000
     1.0000   1.0000   1.0000   1.0000   1.0000   1.0000   1.0000   1.0000
     1.0000   1.0000   1.0000   1.0000   1.0000   1.0000   1.0000   1.0000
     1.0000   1.0000   1.0000   1.0000   1.0000   1.0000   1.0000   1.0000
     1.0000   1.0000   1.0000   1.0000   1.0000   1.0000   1.0000   1.0000
     1.0000   1.0000   1.0000   1.0000   1.0000   1.0000   1.0000   1.0000
     1.0000   1.0000   1.0000   1.0000   1.0000   1.0000   1.0000   1.0000
     1.0000   1.0000   1.0000   1.0000   1.0000   1.0000   1.0000   1.0000
     0.0000   0.0000   0.0000   0.0000   0.0000   0.0000   0.0000   0.0000
     0.0000   0.0000   0.0000   0.0000   0.0000   0.0000   0.0000   0.0000
     0.0000   0.0000   0.0000   0.0000   0.0000   0.0000   0.0000   0.0000
     0.0000   0.0000   0.0000   0.0000

          k =-0.2500-0.2500-0.2500 ( 47657 PWs)   bands (ev):

    -6.2170  -6.2170  -5.8931  -5.8931  -5.8166  -5.8151  -5.8119  -5.8107
    -5.7839  -5.7836  -5.6913  -5.6897  -5.6895  -5.6852  -5.6831  -5.6808
    -3.5098  -3.5098  -3.5068  -3.5053  -2.8709  -2.8708  -2.8475  -2.8474
    -2.8463  -2.8456  -2.6246  -2.6205  -2.5970  -2.5968  -2.5962  -2.5858
    -2.5857  -2.5787  -2.5677  -2.5603  -2.5600  -2.5348  -2.5272  -2.5269
    -2.4446  -2.4237  -2.4232  -2.4220  -2.3728  -2.3726  -2.3608  -2.3605
    -2.2893  -2.2498  -2.2495  -2.2480  -2.2103  -2.2102  -1.1373  -1.1372
    -1.0156  -1.0152  -1.0072  -0.9969  -0.9951  -0.9767  -0.9359  -0.9343
    -0.9205  -0.9018  -0.9017  -0.8577  -0.8562  -0.8557  -0.7676  -0.7650
    -0.7587  -0.7584  -0.7300  -0.7122  -0.7118  -0.6899  -0.6784  -0.6783
    -0.6703  -0.6697  -0.6696  -0.6548  -0.5901  -0.5898  -0.5319  -0.5136
    -0.4955  -0.4953  -0.4788  -0.4784  -0.4593  -0.4551  -0.4247  -0.4246
     0.2261   0.2461   0.2500   0.2527   0.2961   0.2994   0.3337   0.3542
     0.3552   0.3822   0.6526   0.6526   0.9535   0.9539   2.8857   2.8862
     2.8868   2.9736   2.9834   2.9838   3.2643   3.3066   3.3074   3.3347
     3.3410   3.3415   3.3641   3.3643   3.5015   3.5023   3.5229   3.5663
     3.5993   3.6008   4.0736   4.0736   4.1059   4.1194   4.1467   4.1470
     4.1751   4.1754   4.5996   4.6440   4.6452   4.6533   5.1836   5.2405
     5.7654   5.7671   5.9543   5.9553   6.4837   6.5367   6.5379   6.6078
     6.7409   6.7427   7.1082   7.1810   7.1811   7.2803   7.5751   7.5757
     8.1108   8.1614   8.1615   8.2284   8.2458   8.2460   8.9288   8.9289
     9.6655   9.6659   9.6848   9.7179

     occupation numbers 
     1.0000   1.0000   1.0000   1.0000   1.0000   1.0000   1.0000   1.0000
     1.0000   1.0000   1.0000   1.0000   1.0000   1.0000   1.0000   1.0000
     1.0000   1.0000   1.0000   1.0000   1.0000   1.0000   1.0000   1.0000
     1.0000   1.0000   1.0000   1.0000   1.0000   1.0000   1.0000   1.0000
     1.0000   1.0000   1.0000   1.0000   1.0000   1.0000   1.0000   1.0000
     1.0000   1.0000   1.0000   1.0000   1.0000   1.0000   1.0000   1.0000
     1.0000   1.0000   1.0000   1.0000   1.0000   1.0000   1.0000   1.0000
     1.0000   1.0000   1.0000   1.0000   1.0000   1.0000   1.0000   1.0000
     1.0000   1.0000   1.0000   1.0000   1.0000   1.0000   1.0000   1.0000
     1.0000   1.0000   1.0000   1.0000   1.0000   1.0000   1.0000   1.0000
     1.0000   1.0000   1.0000   1.0000   1.0000   1.0000   1.0000   1.0000
     1.0000   1.0000   1.0000   1.0000   1.0000   1.0000   1.0000   1.0000
     1.0000   1.0000   1.0000   1.0000   1.0000   1.0000   1.0000   1.0000
     1.0000   1.0000   1.0000   1.0000   1.0000   1.0000   1.0000   1.0000
     1.0000   1.0000   1.0000   1.0000   1.0000   1.0000   1.0000   1.0000
     1.0000   1.0000   1.0000   1.0000   1.0000   1.0000   1.0000   1.0000
     1.0000   1.0000   1.0000   1.0000   1.0000   1.0000   1.0000   1.0000
     1.0000   1.0000   1.0000   1.0000   1.0000   1.0000   1.0000   1.0000
     0.0000   0.0000   0.0000   0.0000   0.0000   0.0000   0.0000   0.0000
     0.0000   0.0000   0.0000   0.0000   0.0000   0.0000   0.0000   0.0000
     0.0000   0.0000   0.0000   0.0000   0.0000   0.0000   0.0000   0.0000
     0.0000   0.0000   0.0000   0.0000

          k =-0.2500-0.2500-0.7500 ( 47670 PWs)   bands (ev):

    -6.0757  -6.0751  -5.9586  -5.9564  -5.8588  -5.8562  -5.8172  -5.8155
    -5.7888  -5.7860  -5.7369  -5.7303  -5.6917  -5.6905  -5.6825  -5.6801
    -3.5133  -3.5117  -3.5084  -3.5071  -2.8747  -2.8741  -2.8498  -2.8474
    -2.8452  -2.8442  -2.6133  -2.6079  -2.5828  -2.5762  -2.5718  -2.5633
    -2.5584  -2.5552  -2.5487  -2.5423  -2.5399  -2.5225  -2.5092  -2.5050
    -2.5015  -2.4891  -2.4886  -2.4479  -2.4418  -2.4385  -2.4283  -2.4135
    -2.3710  -2.2969  -2.2727  -2.2066  -2.1737  -2.1570  -1.1033  -1.0912
    -1.0383  -1.0260  -1.0014  -0.9997  -0.9735  -0.9714  -0.9367  -0.9281
    -0.9200  -0.9131  -0.8872  -0.8839  -0.8252  -0.8027  -0.7945  -0.7760
    -0.7735  -0.7569  -0.7559  -0.7471  -0.7334  -0.7299  -0.7206  -0.7172
    -0.6908  -0.6791  -0.6674  -0.6539  -0.6479  -0.6398  -0.6221  -0.6151
    -0.6007  -0.5730  -0.5361  -0.4928  -0.4823  -0.4545  -0.3775  -0.3616
     0.1315   0.1558   0.2599   0.3270   0.3813   0.4995   0.6664   0.6848
     0.8979   0.9006   1.2123   1.2618   1.5231   1.5800   2.3086   2.3282
     2.6000   2.6136   2.6642   2.7429   2.7650   2.7786   3.0139   3.0241
     3.1473   3.1588   3.3125   3.3137   3.3450   3.3668   3.3897   3.4810
     3.6577   3.7115   3.7589   3.7959   3.8665   3.8894   3.9031   3.9304
     3.9859   3.9899   4.1277   4.1908   4.5009   4.5738   4.6006   4.6425
     6.4794   6.5874   6.6235   6.7217   7.0658   7.1043   7.1755   7.2037
     7.2820   7.3437   7.4144   7.4191   7.6475   7.6840   8.0408   8.0412
     8.3273   8.4947   8.6499   8.8875   9.2186   9.2352   9.3195   9.3337
     9.3590   9.3768   9.5422   9.5612

     occupation numbers 
     1.0000   1.0000   1.0000   1.0000   1.0000   1.0000   1.0000   1.0000
     1.0000   1.0000   1.0000   1.0000   1.0000   1.0000   1.0000   1.0000
     1.0000   1.0000   1.0000   1.0000   1.0000   1.0000   1.0000   1.0000
     1.0000   1.0000   1.0000   1.0000   1.0000   1.0000   1.0000   1.0000
     1.0000   1.0000   1.0000   1.0000   1.0000   1.0000   1.0000   1.0000
     1.0000   1.0000   1.0000   1.0000   1.0000   1.0000   1.0000   1.0000
     1.0000   1.0000   1.0000   1.0000   1.0000   1.0000   1.0000   1.0000
     1.0000   1.0000   1.0000   1.0000   1.0000   1.0000   1.0000   1.0000
     1.0000   1.0000   1.0000   1.0000   1.0000   1.0000   1.0000   1.0000
     1.0000   1.0000   1.0000   1.0000   1.0000   1.0000   1.0000   1.0000
     1.0000   1.0000   1.0000   1.0000   1.0000   1.0000   1.0000   1.0000
     1.0000   1.0000   1.0000   1.0000   1.0000   1.0000   1.0000   1.0000
     1.0000   1.0000   1.0000   1.0000   1.0000   1.0000   1.0000   1.0000
     1.0000   1.0000   1.0000   1.0000   1.0000   1.0000   1.0000   1.0000
     1.0000   1.0000   1.0000   1.0000   1.0000   1.0000   1.0000   1.0000
     1.0000   1.0000   1.0000   1.0000   1.0000   1.0000   1.0000   1.0000
     1.0000   1.0000   1.0000   1.0000   1.0000   1.0000   1.0000   1.0000
     1.0000   1.0000   1.0000   1.0000   1.0000   1.0000   1.0000   1.0000
     0.0000   0.0000   0.0000   0.0000   0.0000   0.0000   0.0000   0.0000
     0.0000   0.0000   0.0000   0.0000   0.0000   0.0000   0.0000   0.0000
     0.0000   0.0000   0.0000   0.0000   0.0000   0.0000   0.0000   0.0000
     0.0000   0.0000   0.0000   0.0000

          k = 0.2500 0.2500-0.7500 ( 47670 PWs)   bands (ev):

    -6.0754  -6.0746  -5.9617  -5.9594  -5.8567  -5.8543  -5.8171  -5.8155
    -5.7884  -5.7856  -5.7368  -5.7301  -5.6917  -5.6902  -5.6826  -5.6801
    -3.5132  -3.5117  -3.5084  -3.5071  -2.8746  -2.8742  -2.8498  -2.8473
    -2.8453  -2.8443  -2.6098  -2.6057  -2.5869  -2.5799  -2.5741  -2.5675
    -2.5534  -2.5510  -2.5464  -2.5413  -2.5399  -2.5274  -2.5095  -2.5033
    -2.5024  -2.4896  -2.4872  -2.4491  -2.4401  -2.4376  -2.4264  -2.4128
    -2.3736  -2.2968  -2.2726  -2.2064  -2.1740  -2.1574  -1.0990  -1.0883
    -1.0474  -1.0324  -0.9976  -0.9961  -0.9727  -0.9717  -0.9357  -0.9272
    -0.9190  -0.9152  -0.8865  -0.8852  -0.8265  -0.7986  -0.7933  -0.7752
    -0.7718  -0.7558  -0.7545  -0.7475  -0.7347  -0.7326  -0.7195  -0.7182
    -0.6912  -0.6772  -0.6653  -0.6575  -0.6482  -0.6391  -0.6194  -0.6173
    -0.6005  -0.5716  -0.5373  -0.4936  -0.4833  -0.4564  -0.3775  -0.3619
     0.1312   0.1516   0.2580   0.3245   0.3804   0.4967   0.6649   0.6828
     0.8970   0.8997   1.2034   1.2536   1.5299   1.5856   2.3140   2.3348
     2.6025   2.6154   2.6683   2.7453   2.7685   2.7826   3.0171   3.0275
     3.1527   3.1634   3.3109   3.3118   3.3455   3.3671   3.3931   3.4845
     3.6549   3.7100   3.7585   3.7966   3.8642   3.8870   3.8998   3.9266
     3.9831   3.9873   4.1253   4.1909   4.4978   4.5728   4.6027   4.6450
     6.4775   6.5832   6.6236   6.7163   7.0655   7.1049   7.1758   7.2055
     7.2826   7.3459   7.4136   7.4224   7.6445   7.6806   8.0322   8.0337
     8.3258   8.4931   8.6474   8.8890   9.2168   9.2308   9.3118   9.3369
     9.3600   9.3687   9.5427   9.5550

     occupation numbers 
     1.0000   1.0000   1.0000   1.0000   1.0000   1.0000   1.0000   1.0000
     1.0000   1.0000   1.0000   1.0000   1.0000   1.0000   1.0000   1.0000
     1.0000   1.0000   1.0000   1.0000   1.0000   1.0000   1.0000   1.0000
     1.0000   1.0000   1.0000   1.0000   1.0000   1.0000   1.0000   1.0000
     1.0000   1.0000   1.0000   1.0000   1.0000   1.0000   1.0000   1.0000
     1.0000   1.0000   1.0000   1.0000   1.0000   1.0000   1.0000   1.0000
     1.0000   1.0000   1.0000   1.0000   1.0000   1.0000   1.0000   1.0000
     1.0000   1.0000   1.0000   1.0000   1.0000   1.0000   1.0000   1.0000
     1.0000   1.0000   1.0000   1.0000   1.0000   1.0000   1.0000   1.0000
     1.0000   1.0000   1.0000   1.0000   1.0000   1.0000   1.0000   1.0000
     1.0000   1.0000   1.0000   1.0000   1.0000   1.0000   1.0000   1.0000
     1.0000   1.0000   1.0000   1.0000   1.0000   1.0000   1.0000   1.0000
     1.0000   1.0000   1.0000   1.0000   1.0000   1.0000   1.0000   1.0000
     1.0000   1.0000   1.0000   1.0000   1.0000   1.0000   1.0000   1.0000
     1.0000   1.0000   1.0000   1.0000   1.0000   1.0000   1.0000   1.0000
     1.0000   1.0000   1.0000   1.0000   1.0000   1.0000   1.0000   1.0000
     1.0000   1.0000   1.0000   1.0000   1.0000   1.0000   1.0000   1.0000
     1.0000   1.0000   1.0000   1.0000   1.0000   1.0000   1.0000   1.0000
     0.0000   0.0000   0.0000   0.0000   0.0000   0.0000   0.0000   0.0000
     0.0000   0.0000   0.0000   0.0000   0.0000   0.0000   0.0000   0.0000
     0.0000   0.0000   0.0000   0.0000   0.0000   0.0000   0.0000   0.0000
     0.0000   0.0000   0.0000   0.0000

          k = 0.2500-0.2500-0.7500 ( 47670 PWs)   bands (ev):

    -6.0739  -6.0732  -5.9643  -5.9621  -5.8597  -5.8571  -5.8130  -5.8115
    -5.7842  -5.7817  -5.7415  -5.7353  -5.6924  -5.6910  -5.6817  -5.6778
    -3.5125  -3.5110  -3.5090  -3.5078  -2.8745  -2.8738  -2.8499  -2.8476
    -2.8453  -2.8442  -2.6108  -2.6052  -2.5844  -2.5805  -2.5715  -2.5652
    -2.5591  -2.5566  -2.5465  -2.5412  -2.5378  -2.5252  -2.5084  -2.5031
    -2.4996  -2.4910  -2.4880  -2.4492  -2.4410  -2.4387  -2.4272  -2.4127
    -2.3708  -2.2978  -2.2737  -2.2054  -2.1739  -2.1576  -1.0992  -1.0888
    -1.0448  -1.0311  -1.0030  -0.9989  -0.9709  -0.9673  -0.9338  -0.9275
    -0.9229  -0.9146  -0.8855  -0.8841  -0.8245  -0.7991  -0.7918  -0.7782
    -0.7739  -0.7605  -0.7560  -0.7492  -0.7338  -0.7310  -0.7164  -0.7147
    -0.6941  -0.6779  -0.6678  -0.6534  -0.6493  -0.6354  -0.6220  -0.6184
    -0.6010  -0.5737  -0.5349  -0.4909  -0.4837  -0.4549  -0.3787  -0.3621
     0.1291   0.1519   0.2606   0.3241   0.3861   0.5057   0.6593   0.6776
     0.8883   0.8920   1.2098   1.2589   1.5308   1.5881   2.3127   2.3325
     2.6073   2.6179   2.6652   2.7467   2.7648   2.7899   3.0134   3.0250
     3.1476   3.1599   3.3080   3.3116   3.3440   3.3656   3.3924   3.4850
     3.6568   3.7090   3.7599   3.7941   3.8638   3.8880   3.9040   3.9322
     3.9883   3.9929   4.1267   4.1904   4.4986   4.5672   4.6034   4.6412
     6.4802   6.5784   6.6266   6.7108   7.0663   7.1048   7.1753   7.2035
     7.2808   7.3436   7.4146   7.4188   7.6455   7.6821   8.0331   8.0373
     8.3313   8.4954   8.6508   8.8877   9.2155   9.2322   9.3178   9.3321
     9.3563   9.3751   9.5377   9.5571

     occupation numbers 
     1.0000   1.0000   1.0000   1.0000   1.0000   1.0000   1.0000   1.0000
     1.0000   1.0000   1.0000   1.0000   1.0000   1.0000   1.0000   1.0000
     1.0000   1.0000   1.0000   1.0000   1.0000   1.0000   1.0000   1.0000
     1.0000   1.0000   1.0000   1.0000   1.0000   1.0000   1.0000   1.0000
     1.0000   1.0000   1.0000   1.0000   1.0000   1.0000   1.0000   1.0000
     1.0000   1.0000   1.0000   1.0000   1.0000   1.0000   1.0000   1.0000
     1.0000   1.0000   1.0000   1.0000   1.0000   1.0000   1.0000   1.0000
     1.0000   1.0000   1.0000   1.0000   1.0000   1.0000   1.0000   1.0000
     1.0000   1.0000   1.0000   1.0000   1.0000   1.0000   1.0000   1.0000
     1.0000   1.0000   1.0000   1.0000   1.0000   1.0000   1.0000   1.0000
     1.0000   1.0000   1.0000   1.0000   1.0000   1.0000   1.0000   1.0000
     1.0000   1.0000   1.0000   1.0000   1.0000   1.0000   1.0000   1.0000
     1.0000   1.0000   1.0000   1.0000   1.0000   1.0000   1.0000   1.0000
     1.0000   1.0000   1.0000   1.0000   1.0000   1.0000   1.0000   1.0000
     1.0000   1.0000   1.0000   1.0000   1.0000   1.0000   1.0000   1.0000
     1.0000   1.0000   1.0000   1.0000   1.0000   1.0000   1.0000   1.0000
     1.0000   1.0000   1.0000   1.0000   1.0000   1.0000   1.0000   1.0000
     1.0000   1.0000   1.0000   1.0000   1.0000   1.0000   1.0000   1.0000
     0.0000   0.0000   0.0000   0.0000   0.0000   0.0000   0.0000   0.0000
     0.0000   0.0000   0.0000   0.0000   0.0000   0.0000   0.0000   0.0000
     0.0000   0.0000   0.0000   0.0000   0.0000   0.0000   0.0000   0.0000
     0.0000   0.0000   0.0000   0.0000

          k = 0.7500 0.2500 0.2500 ( 47670 PWs)   bands (ev):

    -6.0758  -6.0752  -5.9575  -5.9552  -5.8625  -5.8602  -5.8148  -5.8132
    -5.7867  -5.7839  -5.7389  -5.7327  -5.6925  -5.6910  -5.6823  -5.6783
    -3.5132  -3.5119  -3.5082  -3.5072  -2.8747  -2.8741  -2.8498  -2.8473
    -2.8453  -2.8442  -2.6130  -2.6079  -2.5826  -2.5766  -2.5718  -2.5630
    -2.5580  -2.5546  -2.5488  -2.5432  -2.5397  -2.5227  -2.5099  -2.5049
    -2.5013  -2.4895  -2.4888  -2.4488  -2.4410  -2.4381  -2.4274  -2.4140
    -2.3715  -2.2966  -2.2726  -2.2067  -2.1737  -2.1571  -1.1030  -1.0911
    -1.0390  -1.0252  -1.0000  -1.0000  -0.9729  -0.9725  -0.9372  -0.9296
    -0.9185  -0.9128  -0.8881  -0.8842  -0.8247  -0.8032  -0.7948  -0.7750
    -0.7739  -0.7570  -0.7556  -0.7469  -0.7330  -0.7305  -0.7209  -0.7175
    -0.6903  -0.6797  -0.6672  -0.6548  -0.6471  -0.6412  -0.6219  -0.6147
    -0.6010  -0.5720  -0.5365  -0.4928  -0.4817  -0.4549  -0.3775  -0.3617
     0.1318   0.1566   0.2598   0.3278   0.3824   0.5001   0.6662   0.6845
     0.8968   0.8993   1.2117   1.2622   1.5239   1.5797   2.3086   2.3283
     2.6013   2.6135   2.6625   2.7429   2.7640   2.7786   3.0143   3.0244
     3.1481   3.1594   3.3129   3.3140   3.3453   3.3667   3.3898   3.4809
     3.6575   3.7111   3.7592   3.7959   3.8658   3.8888   3.9027   3.9301
     3.9862   3.9898   4.1275   4.1906   4.5010   4.5726   4.6020   4.6428
     6.4813   6.5862   6.6247   6.7213   7.0610   7.1037   7.1764   7.2112
     7.2763   7.3456   7.4120   7.4261   7.6468   7.6834   8.0384   8.0395
     8.3275   8.4946   8.6495   8.8875   9.2198   9.2351   9.3188   9.3357
     9.3583   9.3750   9.5425   9.5611

     occupation numbers 
     1.0000   1.0000   1.0000   1.0000   1.0000   1.0000   1.0000   1.0000
     1.0000   1.0000   1.0000   1.0000   1.0000   1.0000   1.0000   1.0000
     1.0000   1.0000   1.0000   1.0000   1.0000   1.0000   1.0000   1.0000
     1.0000   1.0000   1.0000   1.0000   1.0000   1.0000   1.0000   1.0000
     1.0000   1.0000   1.0000   1.0000   1.0000   1.0000   1.0000   1.0000
     1.0000   1.0000   1.0000   1.0000   1.0000   1.0000   1.0000   1.0000
     1.0000   1.0000   1.0000   1.0000   1.0000   1.0000   1.0000   1.0000
     1.0000   1.0000   1.0000   1.0000   1.0000   1.0000   1.0000   1.0000
     1.0000   1.0000   1.0000   1.0000   1.0000   1.0000   1.0000   1.0000
     1.0000   1.0000   1.0000   1.0000   1.0000   1.0000   1.0000   1.0000
     1.0000   1.0000   1.0000   1.0000   1.0000   1.0000   1.0000   1.0000
     1.0000   1.0000   1.0000   1.0000   1.0000   1.0000   1.0000   1.0000
     1.0000   1.0000   1.0000   1.0000   1.0000   1.0000   1.0000   1.0000
     1.0000   1.0000   1.0000   1.0000   1.0000   1.0000   1.0000   1.0000
     1.0000   1.0000   1.0000   1.0000   1.0000   1.0000   1.0000   1.0000
     1.0000   1.0000   1.0000   1.0000   1.0000   1.0000   1.0000   1.0000
     1.0000   1.0000   1.0000   1.0000   1.0000   1.0000   1.0000   1.0000
     1.0000   1.0000   1.0000   1.0000   1.0000   1.0000   1.0000   1.0000
     0.0000   0.0000   0.0000   0.0000   0.0000   0.0000   0.0000   0.0000
     0.0000   0.0000   0.0000   0.0000   0.0000   0.0000   0.0000   0.0000
     0.0000   0.0000   0.0000   0.0000   0.0000   0.0000   0.0000   0.0000
     0.0000   0.0000   0.0000   0.0000

          k =-0.7500 0.2500-0.2500 ( 47670 PWs)   bands (ev):

    -6.0752  -6.0746  -5.9614  -5.9591  -5.8590  -5.8565  -5.8153  -5.8137
    -5.7868  -5.7842  -5.7387  -5.7322  -5.6912  -5.6901  -5.6822  -5.6799
    -3.5132  -3.5116  -3.5084  -3.5071  -2.8747  -2.8741  -2.8496  -2.8474
    -2.8453  -2.8443  -2.6108  -2.6050  -2.5839  -2.5811  -2.5720  -2.5648
    -2.5591  -2.5570  -2.5465  -2.5403  -2.5378  -2.5252  -2.5083  -2.5033
    -2.4995  -2.4914  -2.4887  -2.4500  -2.4401  -2.4381  -2.4275  -2.4121
    -2.3710  -2.2977  -2.2740  -2.2053  -2.1737  -2.1579  -1.0994  -1.0889
    -1.0436  -1.0298  -1.0032  -0.9995  -0.9718  -0.9684  -0.9346  -0.9258
    -0.9232  -0.9145  -0.8855  -0.8845  -0.8248  -0.7988  -0.7910  -0.7777
    -0.7741  -0.7607  -0.7552  -0.7502  -0.7338  -0.7321  -0.7159  -0.7145
    -0.6942  -0.6775  -0.6686  -0.6532  -0.6499  -0.6344  -0.6235  -0.6180
    -0.6006  -0.5737  -0.5346  -0.4908  -0.4844  -0.4551  -0.3786  -0.3620
     0.1292   0.1520   0.2607   0.3246   0.3868   0.5066   0.6594   0.6775
     0.8867   0.8893   1.2109   1.2597   1.5316   1.5889   2.3120   2.3319
     2.6053   2.6180   2.6669   2.7467   2.7674   2.7876   3.0136   3.0251
     3.1475   3.1596   3.3074   3.3116   3.3442   3.3652   3.3920   3.4847
     3.6575   3.7103   3.7606   3.7956   3.8627   3.8866   3.9033   3.9319
     3.9880   3.9923   4.1274   4.1909   4.4998   4.5711   4.5998   4.6401
     6.4763   6.5836   6.6233   6.7156   7.0727   7.1055   7.1741   7.1957
     7.2874   7.3433   7.4110   7.4169   7.6446   7.6816   8.0333   8.0371
     8.3309   8.4952   8.6505   8.8874   9.2162   9.2291   9.3168   9.3322
     9.3569   9.3773   9.5381   9.5559

     occupation numbers 
     1.0000   1.0000   1.0000   1.0000   1.0000   1.0000   1.0000   1.0000
     1.0000   1.0000   1.0000   1.0000   1.0000   1.0000   1.0000   1.0000
     1.0000   1.0000   1.0000   1.0000   1.0000   1.0000   1.0000   1.0000
     1.0000   1.0000   1.0000   1.0000   1.0000   1.0000   1.0000   1.0000
     1.0000   1.0000   1.0000   1.0000   1.0000   1.0000   1.0000   1.0000
     1.0000   1.0000   1.0000   1.0000   1.0000   1.0000   1.0000   1.0000
     1.0000   1.0000   1.0000   1.0000   1.0000   1.0000   1.0000   1.0000
     1.0000   1.0000   1.0000   1.0000   1.0000   1.0000   1.0000   1.0000
     1.0000   1.0000   1.0000   1.0000   1.0000   1.0000   1.0000   1.0000
     1.0000   1.0000   1.0000   1.0000   1.0000   1.0000   1.0000   1.0000
     1.0000   1.0000   1.0000   1.0000   1.0000   1.0000   1.0000   1.0000
     1.0000   1.0000   1.0000   1.0000   1.0000   1.0000   1.0000   1.0000
     1.0000   1.0000   1.0000   1.0000   1.0000   1.0000   1.0000   1.0000
     1.0000   1.0000   1.0000   1.0000   1.0000   1.0000   1.0000   1.0000
     1.0000   1.0000   1.0000   1.0000   1.0000   1.0000   1.0000   1.0000
     1.0000   1.0000   1.0000   1.0000   1.0000   1.0000   1.0000   1.0000
     1.0000   1.0000   1.0000   1.0000   1.0000   1.0000   1.0000   1.0000
     1.0000   1.0000   1.0000   1.0000   1.0000   1.0000   1.0000   1.0000
     0.0000   0.0000   0.0000   0.0000   0.0000   0.0000   0.0000   0.0000
     0.0000   0.0000   0.0000   0.0000   0.0000   0.0000   0.0000   0.0000
     0.0000   0.0000   0.0000   0.0000   0.0000   0.0000   0.0000   0.0000
     0.0000   0.0000   0.0000   0.0000

          k = 0.7500-0.2500-0.2500 ( 47670 PWs)   bands (ev):

    -6.0740  -6.0732  -5.9645  -5.9623  -5.8571  -5.8547  -5.8148  -5.8132
    -5.7866  -5.7839  -5.7398  -5.7335  -5.6923  -5.6909  -5.6819  -5.6779
    -3.5124  -3.5110  -3.5089  -3.5079  -2.8744  -2.8739  -2.8501  -2.8475
    -2.8452  -2.8442  -2.6100  -2.6056  -2.5856  -2.5795  -2.5736  -2.5668
    -2.5533  -2.5516  -2.5479  -2.5412  -2.5408  -2.5284  -2.5096  -2.5036
    -2.5032  -2.4877  -2.4867  -2.4488  -2.4405  -2.4380  -2.4265  -2.4131
    -2.3738  -2.2966  -2.2724  -2.2065  -2.1740  -2.1573  -1.0985  -1.0880
    -1.0483  -1.0325  -0.9968  -0.9960  -0.9720  -0.9719  -0.9357  -0.9288
    -0.9176  -0.9149  -0.8865  -0.8859  -0.8263  -0.7993  -0.7941  -0.7760
    -0.7719  -0.7556  -0.7545  -0.7467  -0.7346  -0.7331  -0.7205  -0.7194
    -0.6912  -0.6770  -0.6654  -0.6579  -0.6475  -0.6387  -0.6193  -0.6173
    -0.6005  -0.5711  -0.5370  -0.4935  -0.4825  -0.4560  -0.3775  -0.3622
     0.1315   0.1524   0.2580   0.3253   0.3814   0.4972   0.6653   0.6833
     0.8963   0.8991   1.2017   1.2524   1.5298   1.5852   2.3147   2.3351
     2.6039   2.6156   2.6674   2.7453   2.7681   2.7828   3.0172   3.0275
     3.1528   3.1639   3.3112   3.3120   3.3456   3.3668   3.3933   3.4847
     3.6541   3.7081   3.7583   3.7947   3.8653   3.8880   3.9009   3.9271
     3.9836   3.9874   4.1249   4.1904   4.4965   4.5689   4.6062   4.6459
     6.4816   6.5790   6.6270   6.7127   7.0629   7.1038   7.1771   7.2106
     7.2787   7.3463   7.4141   7.4272   7.6444   7.6797   8.0311   8.0314
     8.3259   8.4931   8.6477   8.8890   9.2169   9.2345   9.3127   9.3319
     9.3581   9.3701   9.5430   9.5550

     occupation numbers 
     1.0000   1.0000   1.0000   1.0000   1.0000   1.0000   1.0000   1.0000
     1.0000   1.0000   1.0000   1.0000   1.0000   1.0000   1.0000   1.0000
     1.0000   1.0000   1.0000   1.0000   1.0000   1.0000   1.0000   1.0000
     1.0000   1.0000   1.0000   1.0000   1.0000   1.0000   1.0000   1.0000
     1.0000   1.0000   1.0000   1.0000   1.0000   1.0000   1.0000   1.0000
     1.0000   1.0000   1.0000   1.0000   1.0000   1.0000   1.0000   1.0000
     1.0000   1.0000   1.0000   1.0000   1.0000   1.0000   1.0000   1.0000
     1.0000   1.0000   1.0000   1.0000   1.0000   1.0000   1.0000   1.0000
     1.0000   1.0000   1.0000   1.0000   1.0000   1.0000   1.0000   1.0000
     1.0000   1.0000   1.0000   1.0000   1.0000   1.0000   1.0000   1.0000
     1.0000   1.0000   1.0000   1.0000   1.0000   1.0000   1.0000   1.0000
     1.0000   1.0000   1.0000   1.0000   1.0000   1.0000   1.0000   1.0000
     1.0000   1.0000   1.0000   1.0000   1.0000   1.0000   1.0000   1.0000
     1.0000   1.0000   1.0000   1.0000   1.0000   1.0000   1.0000   1.0000
     1.0000   1.0000   1.0000   1.0000   1.0000   1.0000   1.0000   1.0000
     1.0000   1.0000   1.0000   1.0000   1.0000   1.0000   1.0000   1.0000
     1.0000   1.0000   1.0000   1.0000   1.0000   1.0000   1.0000   1.0000
     1.0000   1.0000   1.0000   1.0000   1.0000   1.0000   1.0000   1.0000
     0.0000   0.0000   0.0000   0.0000   0.0000   0.0000   0.0000   0.0000
     0.0000   0.0000   0.0000   0.0000   0.0000   0.0000   0.0000   0.0000
     0.0000   0.0000   0.0000   0.0000   0.0000   0.0000   0.0000   0.0000
     0.0000   0.0000   0.0000   0.0000

     the Fermi energy is     5.4960 ev

!    total energy              =   -1026.69217764 Ry
     Harris-Foulkes estimate   =   -1026.69217764 Ry
     estimated scf accuracy    <          2.0E-09 Ry

     The total energy is the sum of the following terms:

     one-electron contribution =    -281.48164100 Ry
     hartree contribution      =     233.98121333 Ry
     xc contribution           =    -379.20239384 Ry
     ewald contribution        =    -599.98935598 Ry
     smearing contrib. (-TS)   =      -0.00000015 Ry

     convergence has been achieved in  11 iterations

     Forces acting on atoms (cartesian axes, Ry/au):

     atom    1 type  2   force =     0.00068619   -0.00079020   -0.00079020
     atom    2 type  3   force =     0.00149930   -0.00041285   -0.00041285
     atom    3 type  1   force =    -0.00010255    0.00012599   -0.00137888
     atom    4 type  3   force =     0.00047792    0.00082836   -0.00144964
     atom    5 type  1   force =     0.00026876    0.00014209    0.00014209
     atom    6 type  3   force =     0.00118962    0.00087450    0.00087450
     atom    7 type  1   force =    -0.00043190    0.00084771   -0.00067399
     atom    8 type  3   force =     0.00020237    0.00184661   -0.00010289
     atom    9 type  1   force =    -0.00010255   -0.00137888    0.00012599
     atom   10 type  3   force =     0.00047792   -0.00144964    0.00082836
     atom   11 type  1   force =    -0.00079135   -0.00069557   -0.00069557
     atom   12 type  3   force =    -0.00086761   -0.00010557   -0.00010557
     atom   13 type  1   force =    -0.00043190   -0.00067399    0.00084771
     atom   14 type  3   force =     0.00020237   -0.00010289    0.00184661
     atom   15 type  1   force =    -0.00118488    0.00008732    0.00008732
     atom   16 type  3   force =    -0.00109171    0.00085700    0.00085700
     The non-local contrib.  to forces
     atom    1 type  2   force =     0.00122445   -0.00030456   -0.00030456
     atom    2 type  3   force =     0.00128310    0.00145659    0.00145659
     atom    3 type  1   force =     0.00023921   -0.00040986   -0.00215083
     atom    4 type  3   force =    -0.00144913   -0.00070647   -0.00047530
     atom    5 type  1   force =     0.00113624   -0.00040766   -0.00040766
     atom    6 type  3   force =     0.00250874   -0.00256835   -0.00256835
     atom    7 type  1   force =    -0.00084534    0.00159309   -0.00014697
     atom    8 type  3   force =    -0.00189973    0.00182212   -0.00257107
     atom    9 type  1   force =     0.00023921   -0.00215083   -0.00040986
     atom   10 type  3   force =    -0.00144913   -0.00047530   -0.00070647
     atom   11 type  1   force =    -0.00180356   -0.00014977   -0.00014977
     atom   12 type  3   force =    -0.00149129   -0.00042659   -0.00042659
     atom   13 type  1   force =    -0.00084534   -0.00014697    0.00159309
     atom   14 type  3   force =    -0.00189973   -0.00257107    0.00182212
     atom   15 type  1   force =    -0.00081024   -0.00020369   -0.00020369
     atom   16 type  3   force =     0.00011897    0.00001095    0.00001095
     The ionic contribution  to forces
     atom    1 type  2   force =     0.06579606   -0.02061008   -0.02061008
     atom    2 type  3   force =     0.06044322    0.00746023    0.00746023
     atom    3 type  1   force =    -0.00653853    0.05148843   -0.09743810
     atom    4 type  3   force =     0.01972387    0.04826559   -0.04001760
     atom    5 type  1   force =     0.06732503    0.01384990    0.01384990
     atom    6 type  3   force =     0.03254386    0.01070142    0.01070142
     atom    7 type  1   force =    -0.00508442    0.08625935   -0.06290504
     atom    8 type  3   force =    -0.00810092    0.05119636   -0.03684897
     atom    9 type  1   force =    -0.00653853   -0.09743810    0.05148843
     atom   10 type  3   force =     0.01972387   -0.04001760    0.04826559
     atom   11 type  1   force =    -0.07878560   -0.02534087   -0.02534087
     atom   12 type  3   force =    -0.02108328    0.00078955    0.00078955
     atom   13 type  1   force =    -0.00508442   -0.06290504    0.08625935
     atom   14 type  3   force =    -0.00810092   -0.03684897    0.05119636
     atom   15 type  1   force =    -0.07740588    0.00950244    0.00950244
     atom   16 type  3   force =    -0.04883339    0.00364741    0.00364741
     The local contribution  to forces
     atom    1 type  2   force =    -0.06619050    0.02001287    0.02001287
     atom    2 type  3   force =    -0.05958429   -0.00867005   -0.00867005
     atom    3 type  1   force =     0.00622691   -0.05086598    0.09772960
     atom    4 type  3   force =    -0.01804830   -0.04684308    0.03894794
     atom    5 type  1   force =    -0.06803052   -0.01330575   -0.01330575
     atom    6 type  3   force =    -0.03301685   -0.00810245   -0.00810245
     atom    7 type  1   force =     0.00531345   -0.08666616    0.06214388
     atom    8 type  3   force =     0.00946689   -0.05043654    0.03845214
     atom    9 type  1   force =     0.00622691    0.09772960   -0.05086598
     atom   10 type  3   force =    -0.01804830    0.03894794   -0.04684308
     atom   11 type  1   force =     0.07949095    0.02465285    0.02465285
     atom   12 type  3   force =     0.02143624   -0.00054338   -0.00054338
     atom   13 type  1   force =     0.00531345    0.06214388   -0.08666616
     atom   14 type  3   force =     0.00946689    0.03845214   -0.05043654
     atom   15 type  1   force =     0.07665013   -0.00924395   -0.00924395
     atom   16 type  3   force =     0.04763268   -0.00279720   -0.00279720
     The core correction contribution to forces
     atom    1 type  2   force =    -0.00011940    0.00011118    0.00011118
     atom    2 type  3   force =    -0.00063188   -0.00065881   -0.00065881
     atom    3 type  1   force =    -0.00003364   -0.00006357    0.00044788
     atom    4 type  3   force =     0.00025351    0.00012455    0.00008246
     atom    5 type  1   force =    -0.00012653    0.00000552    0.00000552
     atom    6 type  3   force =    -0.00083475    0.00084312    0.00084312
     atom    7 type  1   force =     0.00018131   -0.00030505    0.00020933
     atom    8 type  3   force =     0.00073531   -0.00072396    0.00085447
     atom    9 type  1   force =    -0.00003364    0.00044788   -0.00006357
     atom   10 type  3   force =     0.00025351    0.00008246    0.00012455
     atom   11 type  1   force =     0.00027611    0.00014144    0.00014144
     atom   12 type  3   force =     0.00025777    0.00007709    0.00007709
     atom   13 type  1   force =     0.00018131    0.00020933   -0.00030505
     atom   14 type  3   force =     0.00073531    0.00085447   -0.00072396
     atom   15 type  1   force =     0.00035951    0.00003359    0.00003359
     atom   16 type  3   force =    -0.00002222   -0.00000654   -0.00000654
     The Hubbard contrib.    to forces
     atom    1 type  2   force =     0.00000000    0.00000000    0.00000000
     atom    2 type  3   force =     0.00000000    0.00000000    0.00000000
     atom    3 type  1   force =     0.00000000    0.00000000    0.00000000
     atom    4 type  3   force =     0.00000000    0.00000000    0.00000000
     atom    5 type  1   force =     0.00000000    0.00000000    0.00000000
     atom    6 type  3   force =     0.00000000    0.00000000    0.00000000
     atom    7 type  1   force =     0.00000000    0.00000000    0.00000000
     atom    8 type  3   force =     0.00000000    0.00000000    0.00000000
     atom    9 type  1   force =     0.00000000    0.00000000    0.00000000
     atom   10 type  3   force =     0.00000000    0.00000000    0.00000000
     atom   11 type  1   force =     0.00000000    0.00000000    0.00000000
     atom   12 type  3   force =     0.00000000    0.00000000    0.00000000
     atom   13 type  1   force =     0.00000000    0.00000000    0.00000000
     atom   14 type  3   force =     0.00000000    0.00000000    0.00000000
     atom   15 type  1   force =     0.00000000    0.00000000    0.00000000
     atom   16 type  3   force =     0.00000000    0.00000000    0.00000000
     The SCF correction term to forces
     atom    1 type  2   force =    -0.00002457    0.00000039    0.00000039
     atom    2 type  3   force =    -0.00001100   -0.00000080   -0.00000080
     atom    3 type  1   force =     0.00000333   -0.00002302    0.00003258
     atom    4 type  3   force =    -0.00000219   -0.00001222    0.00001287
     atom    5 type  1   force =    -0.00003562    0.00000009    0.00000009
     atom    6 type  3   force =    -0.00001154    0.00000077    0.00000077
     atom    7 type  1   force =     0.00000295   -0.00003352    0.00002480
     atom    8 type  3   force =     0.00000066   -0.00001135    0.00001056
     atom    9 type  1   force =     0.00000333    0.00003258   -0.00002302
     atom   10 type  3   force =    -0.00000219    0.00001287   -0.00001222
     atom   11 type  1   force =     0.00003060    0.00000079    0.00000079
     atom   12 type  3   force =     0.00001280   -0.00000224   -0.00000224
     atom   13 type  1   force =     0.00000295    0.00002480   -0.00003352
     atom   14 type  3   force =     0.00000066    0.00001056   -0.00001135
     atom   15 type  1   force =     0.00002145   -0.00000107   -0.00000107
     atom   16 type  3   force =     0.00001209    0.00000238    0.00000238

     Total force =     0.005774     Total SCF correction =     0.000108

     BFGS Geometry Optimization

     number of scf cycles    =   1
     number of bfgs steps    =   0

     energy   new            =   -1026.6921776404 Ry

     new trust radius        =       0.0018605160 bohr
     new conv_thr            =       0.0000000100 Ry


ATOMIC_POSITIONS (bohr)
Cd       0.000686188  -0.000790201  -0.000790201
Te       3.132749298   3.130837153   3.130837153
Hg      -6.262602554   6.262625991  -0.001378880
Te      -3.130772081   9.394578357   3.129800362
Hg       0.000268762   6.262642095   6.262642095
Te       3.132439625   9.394624502   9.394624502
Hg      -6.262931903  12.525847708   6.261826008
Te      -3.131047628  15.658096613   9.393647114
Hg      -6.262602554  -0.001378880   6.262625991
Te      -3.130772081   3.129800362   9.394578357
Hg     -12.525791348   6.261804434   6.261804434
Te      -9.394617611   9.393644428   9.393644428
Hg      -6.262931903   6.261826008  12.525847708
Te      -3.131047628   9.393647114  15.658096613
Hg     -12.526184876  12.525087318  12.525087318
Te      -9.394841707  15.657106999  15.657106999



     Writing output data file x_0.125.save/
     NEW-OLD atomic charge density approx. for the potential

     total cpu time spent up to now is      782.4 secs

     Self-consistent Calculation

     iteration #  1     ecut=    80.00 Ry     beta= 0.70
     Davidson diagonalization with overlap
     ethr =  1.00E-06,  avg # of iterations =  3.0

     Threshold (ethr) on eigenvalues was too large:
     Diagonalizing with lowered threshold

     Davidson diagonalization with overlap
     ethr =  9.32E-10,  avg # of iterations =  4.7

     total cpu time spent up to now is      887.7 secs

     total energy              =   -1026.69220841 Ry
     Harris-Foulkes estimate   =   -1026.69220879 Ry
     estimated scf accuracy    <       0.00000066 Ry

     iteration #  2     ecut=    80.00 Ry     beta= 0.70
     Davidson diagonalization with overlap
     ethr =  4.57E-10,  avg # of iterations =  3.3

     total cpu time spent up to now is      939.3 secs

     total energy              =   -1026.69220846 Ry
     Harris-Foulkes estimate   =   -1026.69220884 Ry
     estimated scf accuracy    <       0.00000077 Ry

     iteration #  3     ecut=    80.00 Ry     beta= 0.70
     Davidson diagonalization with overlap
     ethr =  4.57E-10,  avg # of iterations =  2.0

     total cpu time spent up to now is      975.2 secs

     total energy              =   -1026.69220865 Ry
     Harris-Foulkes estimate   =   -1026.69220867 Ry
     estimated scf accuracy    <       0.00000004 Ry

     iteration #  4     ecut=    80.00 Ry     beta= 0.70
     Davidson diagonalization with overlap
     ethr =  2.93E-11,  avg # of iterations =  3.8

     total cpu time spent up to now is     1025.5 secs

     End of self-consistent calculation

          k =-0.2500 0.2500 0.2500 ( 47657 PWs)   bands (ev):

    -6.2166  -6.2165  -5.8970  -5.8970  -5.8125  -5.8105  -5.8092  -5.8083
    -5.7857  -5.7855  -5.6927  -5.6897  -5.6897  -5.6888  -5.6805  -5.6804
    -3.5090  -3.5089  -3.5078  -3.5063  -2.8707  -2.8706  -2.8479  -2.8476
    -2.8462  -2.8457  -2.6213  -2.6155  -2.6029  -2.5991  -2.5980  -2.5870
    -2.5822  -2.5812  -2.5671  -2.5601  -2.5564  -2.5356  -2.5270  -2.5264
    -2.4462  -2.4250  -2.4216  -2.4195  -2.3741  -2.3738  -2.3596  -2.3590
    -2.2890  -2.2511  -2.2494  -2.2466  -2.2109  -2.2105  -1.1362  -1.1357
    -1.0203  -1.0200  -1.0050  -0.9933  -0.9926  -0.9745  -0.9365  -0.9347
    -0.9218  -0.9013  -0.9006  -0.8577  -0.8569  -0.8549  -0.7691  -0.7635
    -0.7595  -0.7588  -0.7254  -0.7127  -0.7105  -0.6919  -0.6768  -0.6739
    -0.6719  -0.6708  -0.6684  -0.6559  -0.5908  -0.5887  -0.5353  -0.5155
    -0.4917  -0.4912  -0.4803  -0.4802  -0.4604  -0.4560  -0.4255  -0.4253
     0.2214   0.2447   0.2500   0.2549   0.2987   0.2987   0.3286   0.3471
     0.3510   0.3813   0.6480   0.6494   0.9597   0.9598   2.8884   2.8891
     2.8893   2.9769   2.9861   2.9868   3.2616   3.3059   3.3064   3.3329
     3.3422   3.3437   3.3651   3.3662   3.5060   3.5062   3.5278   3.5712
     3.6046   3.6060   4.0742   4.0743   4.1031   4.1163   4.1434   4.1435
     4.1710   4.1712   4.6013   4.6434   4.6461   4.6528   5.1829   5.2395
     5.7662   5.7692   5.9421   5.9422   6.4851   6.5390   6.5394   6.6101
     6.7464   6.7464   7.1051   7.1772   7.1785   7.2765   7.5672   7.5690
     8.1139   8.1625   8.1657   8.2297   8.2463   8.2481   8.9258   8.9305
     9.6590   9.6619   9.6771   9.7121

     occupation numbers 
     1.0000   1.0000   1.0000   1.0000   1.0000   1.0000   1.0000   1.0000
     1.0000   1.0000   1.0000   1.0000   1.0000   1.0000   1.0000   1.0000
     1.0000   1.0000   1.0000   1.0000   1.0000   1.0000   1.0000   1.0000
     1.0000   1.0000   1.0000   1.0000   1.0000   1.0000   1.0000   1.0000
     1.0000   1.0000   1.0000   1.0000   1.0000   1.0000   1.0000   1.0000
     1.0000   1.0000   1.0000   1.0000   1.0000   1.0000   1.0000   1.0000
     1.0000   1.0000   1.0000   1.0000   1.0000   1.0000   1.0000   1.0000
     1.0000   1.0000   1.0000   1.0000   1.0000   1.0000   1.0000   1.0000
     1.0000   1.0000   1.0000   1.0000   1.0000   1.0000   1.0000   1.0000
     1.0000   1.0000   1.0000   1.0000   1.0000   1.0000   1.0000   1.0000
     1.0000   1.0000   1.0000   1.0000   1.0000   1.0000   1.0000   1.0000
     1.0000   1.0000   1.0000   1.0000   1.0000   1.0000   1.0000   1.0000
     1.0000   1.0000   1.0000   1.0000   1.0000   1.0000   1.0000   1.0000
     1.0000   1.0000   1.0000   1.0000   1.0000   1.0000   1.0000   1.0000
     1.0000   1.0000   1.0000   1.0000   1.0000   1.0000   1.0000   1.0000
     1.0000   1.0000   1.0000   1.0000   1.0000   1.0000   1.0000   1.0000
     1.0000   1.0000   1.0000   1.0000   1.0000   1.0000   1.0000   1.0000
     1.0000   1.0000   1.0000   1.0000   1.0000   1.0000   1.0000   1.0000
     0.0000   0.0000   0.0000   0.0000   0.0000   0.0000   0.0000   0.0000
     0.0000   0.0000   0.0000   0.0000   0.0000   0.0000   0.0000   0.0000
     0.0000   0.0000   0.0000   0.0000   0.0000   0.0000   0.0000   0.0000
     0.0000   0.0000   0.0000   0.0000

          k = 0.2500-0.2500 0.7500 ( 47670 PWs)   bands (ev):

    -6.0749  -6.0743  -5.9601  -5.9577  -5.8622  -5.8599  -5.8128  -5.8112
    -5.7849  -5.7822  -5.7397  -5.7335  -5.6928  -5.6914  -5.6827  -5.6789
    -3.5132  -3.5118  -3.5084  -3.5073  -2.8748  -2.8741  -2.8497  -2.8473
    -2.8455  -2.8443  -2.6107  -2.6049  -2.5841  -2.5819  -2.5718  -2.5643
    -2.5581  -2.5562  -2.5461  -2.5407  -2.5375  -2.5247  -2.5087  -2.5027
    -2.5003  -2.4920  -2.4888  -2.4497  -2.4401  -2.4382  -2.4269  -2.4121
    -2.3714  -2.2975  -2.2738  -2.2054  -2.1738  -2.1578  -1.0994  -1.0887
    -1.0437  -1.0287  -1.0033  -1.0003  -0.9711  -0.9675  -0.9341  -0.9269
    -0.9224  -0.9151  -0.8860  -0.8848  -0.8247  -0.7986  -0.7912  -0.7773
    -0.7728  -0.7599  -0.7559  -0.7495  -0.7339  -0.7314  -0.7163  -0.7153
    -0.6931  -0.6776  -0.6681  -0.6539  -0.6493  -0.6351  -0.6229  -0.6183
    -0.6004  -0.5737  -0.5353  -0.4912  -0.4840  -0.4548  -0.3785  -0.3620
     0.1287   0.1504   0.2611   0.3229   0.3874   0.5070   0.6595   0.6778
     0.8885   0.8918   1.2090   1.2589   1.5320   1.5884   2.3121   2.3323
     2.6063   2.6177   2.6653   2.7472   2.7662   2.7868   3.0141   3.0254
     3.1477   3.1601   3.3085   3.3119   3.3445   3.3657   3.3926   3.4845
     3.6573   3.7093   3.7607   3.7953   3.8627   3.8864   3.9034   3.9316
     3.9879   3.9924   4.1268   4.1909   4.4997   4.5711   4.6003   4.6407
     6.4769   6.5837   6.6235   6.7164   7.0661   7.1059   7.1729   7.2028
     7.2814   7.3445   7.4138   7.4204   7.6452   7.6817   8.0319   8.0363
     8.3306   8.4955   8.6502   8.8877   9.2164   9.2302   9.3174   9.3332
     9.3564   9.3761   9.5382   9.5563

     occupation numbers 
     1.0000   1.0000   1.0000   1.0000   1.0000   1.0000   1.0000   1.0000
     1.0000   1.0000   1.0000   1.0000   1.0000   1.0000   1.0000   1.0000
     1.0000   1.0000   1.0000   1.0000   1.0000   1.0000   1.0000   1.0000
     1.0000   1.0000   1.0000   1.0000   1.0000   1.0000   1.0000   1.0000
     1.0000   1.0000   1.0000   1.0000   1.0000   1.0000   1.0000   1.0000
     1.0000   1.0000   1.0000   1.0000   1.0000   1.0000   1.0000   1.0000
     1.0000   1.0000   1.0000   1.0000   1.0000   1.0000   1.0000   1.0000
     1.0000   1.0000   1.0000   1.0000   1.0000   1.0000   1.0000   1.0000
     1.0000   1.0000   1.0000   1.0000   1.0000   1.0000   1.0000   1.0000
     1.0000   1.0000   1.0000   1.0000   1.0000   1.0000   1.0000   1.0000
     1.0000   1.0000   1.0000   1.0000   1.0000   1.0000   1.0000   1.0000
     1.0000   1.0000   1.0000   1.0000   1.0000   1.0000   1.0000   1.0000
     1.0000   1.0000   1.0000   1.0000   1.0000   1.0000   1.0000   1.0000
     1.0000   1.0000   1.0000   1.0000   1.0000   1.0000   1.0000   1.0000
     1.0000   1.0000   1.0000   1.0000   1.0000   1.0000   1.0000   1.0000
     1.0000   1.0000   1.0000   1.0000   1.0000   1.0000   1.0000   1.0000
     1.0000   1.0000   1.0000   1.0000   1.0000   1.0000   1.0000   1.0000
     1.0000   1.0000   1.0000   1.0000   1.0000   1.0000   1.0000   1.0000
     0.0000   0.0000   0.0000   0.0000   0.0000   0.0000   0.0000   0.0000
     0.0000   0.0000   0.0000   0.0000   0.0000   0.0000   0.0000   0.0000
     0.0000   0.0000   0.0000   0.0000   0.0000   0.0000   0.0000   0.0000
     0.0000   0.0000   0.0000   0.0000

          k = 0.2500 0.2500-0.2500 ( 47657 PWs)   bands (ev):

    -6.2168  -6.2167  -5.8955  -5.8954  -5.8153  -5.8137  -5.8098  -5.8087
    -5.7836  -5.7834  -5.6917  -5.6899  -5.6895  -5.6860  -5.6831  -5.6815
    -3.5098  -3.5098  -3.5069  -3.5055  -2.8710  -2.8709  -2.8474  -2.8472
    -2.8465  -2.8461  -2.6216  -2.6158  -2.6039  -2.5983  -2.5969  -2.5865
    -2.5832  -2.5814  -2.5675  -2.5593  -2.5558  -2.5361  -2.5269  -2.5262
    -2.4471  -2.4248  -2.4209  -2.4197  -2.3744  -2.3738  -2.3592  -2.3587
    -2.2888  -2.2509  -2.2496  -2.2466  -2.2112  -2.2107  -1.1362  -1.1358
    -1.0197  -1.0193  -1.0056  -0.9934  -0.9927  -0.9754  -0.9377  -0.9342
    -0.9211  -0.9014  -0.9006  -0.8571  -0.8566  -0.8551  -0.7691  -0.7628
    -0.7600  -0.7591  -0.7244  -0.7109  -0.7104  -0.6920  -0.6766  -0.6739
    -0.6721  -0.6713  -0.6690  -0.6557  -0.5912  -0.5886  -0.5352  -0.5152
    -0.4923  -0.4920  -0.4809  -0.4804  -0.4604  -0.4554  -0.4256  -0.4254
     0.2211   0.2428   0.2501   0.2561   0.2975   0.2996   0.3280   0.3454
     0.3502   0.3814   0.6510   0.6515   0.9589   0.9592   2.8881   2.8887
     2.8892   2.9768   2.9859   2.9868   3.2627   3.3058   3.3066   3.3334
     3.3425   3.3437   3.3658   3.3668   3.5055   3.5060   3.5274   3.5711
     3.6041   3.6055   4.0749   4.0753   4.1025   4.1158   4.1431   4.1432
     4.1707   4.1710   4.6020   4.6432   4.6457   4.6536   5.1826   5.2393
     5.7649   5.7677   5.9442   5.9443   6.4852   6.5389   6.5406   6.6104
     6.7440   6.7460   7.1048   7.1769   7.1788   7.2763   7.5675   7.5697
     8.1136   8.1624   8.1658   8.2296   8.2462   8.2481   8.9255   8.9304
     9.6594   9.6636   9.6782   9.7128

     occupation numbers 
     1.0000   1.0000   1.0000   1.0000   1.0000   1.0000   1.0000   1.0000
     1.0000   1.0000   1.0000   1.0000   1.0000   1.0000   1.0000   1.0000
     1.0000   1.0000   1.0000   1.0000   1.0000   1.0000   1.0000   1.0000
     1.0000   1.0000   1.0000   1.0000   1.0000   1.0000   1.0000   1.0000
     1.0000   1.0000   1.0000   1.0000   1.0000   1.0000   1.0000   1.0000
     1.0000   1.0000   1.0000   1.0000   1.0000   1.0000   1.0000   1.0000
     1.0000   1.0000   1.0000   1.0000   1.0000   1.0000   1.0000   1.0000
     1.0000   1.0000   1.0000   1.0000   1.0000   1.0000   1.0000   1.0000
     1.0000   1.0000   1.0000   1.0000   1.0000   1.0000   1.0000   1.0000
     1.0000   1.0000   1.0000   1.0000   1.0000   1.0000   1.0000   1.0000
     1.0000   1.0000   1.0000   1.0000   1.0000   1.0000   1.0000   1.0000
     1.0000   1.0000   1.0000   1.0000   1.0000   1.0000   1.0000   1.0000
     1.0000   1.0000   1.0000   1.0000   1.0000   1.0000   1.0000   1.0000
     1.0000   1.0000   1.0000   1.0000   1.0000   1.0000   1.0000   1.0000
     1.0000   1.0000   1.0000   1.0000   1.0000   1.0000   1.0000   1.0000
     1.0000   1.0000   1.0000   1.0000   1.0000   1.0000   1.0000   1.0000
     1.0000   1.0000   1.0000   1.0000   1.0000   1.0000   1.0000   1.0000
     1.0000   1.0000   1.0000   1.0000   1.0000   1.0000   1.0000   1.0000
     0.0000   0.0000   0.0000   0.0000   0.0000   0.0000   0.0000   0.0000
     0.0000   0.0000   0.0000   0.0000   0.0000   0.0000   0.0000   0.0000
     0.0000   0.0000   0.0000   0.0000   0.0000   0.0000   0.0000   0.0000
     0.0000   0.0000   0.0000   0.0000

          k =-0.2500-0.2500-0.2500 ( 47657 PWs)   bands (ev):

    -6.2167  -6.2167  -5.8930  -5.8930  -5.8157  -5.8141  -5.8116  -5.8103
    -5.7839  -5.7836  -5.6915  -5.6899  -5.6897  -5.6860  -5.6834  -5.6814
    -3.5099  -3.5099  -3.5069  -3.5054  -2.8709  -2.8709  -2.8475  -2.8475
    -2.8463  -2.8457  -2.6242  -2.6200  -2.5972  -2.5967  -2.5964  -2.5854
    -2.5853  -2.5786  -2.5680  -2.5601  -2.5600  -2.5351  -2.5271  -2.5269
    -2.4449  -2.4234  -2.4229  -2.4220  -2.3728  -2.3727  -2.3605  -2.3603
    -2.2893  -2.2497  -2.2495  -2.2481  -2.2104  -2.2103  -1.1370  -1.1369
    -1.0156  -1.0152  -1.0067  -0.9963  -0.9947  -0.9764  -0.9359  -0.9344
    -0.9206  -0.9020  -0.9019  -0.8576  -0.8563  -0.8559  -0.7675  -0.7648
    -0.7589  -0.7586  -0.7296  -0.7120  -0.7116  -0.6901  -0.6780  -0.6779
    -0.6703  -0.6698  -0.6697  -0.6549  -0.5900  -0.5898  -0.5321  -0.5137
    -0.4951  -0.4949  -0.4790  -0.4787  -0.4594  -0.4552  -0.4247  -0.4246
     0.2258   0.2466   0.2501   0.2525   0.2963   0.2993   0.3331   0.3537
     0.3545   0.3821   0.6522   0.6523   0.9539   0.9542   2.8861   2.8864
     2.8869   2.9739   2.9837   2.9840   3.2642   3.3066   3.3073   3.3347
     3.3413   3.3417   3.3644   3.3645   3.5019   3.5026   3.5233   3.5668
     3.5999   3.6012   4.0737   4.0737   4.1056   4.1191   4.1464   4.1467
     4.1747   4.1749   4.5999   4.6444   4.6451   4.6532   5.1835   5.2405
     5.7657   5.7671   5.9535   5.9544   6.4838   6.5371   6.5382   6.6080
     6.7423   6.7438   7.1077   7.1805   7.1806   7.2797   7.5738   7.5743
     8.1110   8.1616   8.1618   8.2285   8.2460   8.2461   8.9288   8.9290
     9.6650   9.6654   9.6840   9.7174

     occupation numbers 
     1.0000   1.0000   1.0000   1.0000   1.0000   1.0000   1.0000   1.0000
     1.0000   1.0000   1.0000   1.0000   1.0000   1.0000   1.0000   1.0000
     1.0000   1.0000   1.0000   1.0000   1.0000   1.0000   1.0000   1.0000
     1.0000   1.0000   1.0000   1.0000   1.0000   1.0000   1.0000   1.0000
     1.0000   1.0000   1.0000   1.0000   1.0000   1.0000   1.0000   1.0000
     1.0000   1.0000   1.0000   1.0000   1.0000   1.0000   1.0000   1.0000
     1.0000   1.0000   1.0000   1.0000   1.0000   1.0000   1.0000   1.0000
     1.0000   1.0000   1.0000   1.0000   1.0000   1.0000   1.0000   1.0000
     1.0000   1.0000   1.0000   1.0000   1.0000   1.0000   1.0000   1.0000
     1.0000   1.0000   1.0000   1.0000   1.0000   1.0000   1.0000   1.0000
     1.0000   1.0000   1.0000   1.0000   1.0000   1.0000   1.0000   1.0000
     1.0000   1.0000   1.0000   1.0000   1.0000   1.0000   1.0000   1.0000
     1.0000   1.0000   1.0000   1.0000   1.0000   1.0000   1.0000   1.0000
     1.0000   1.0000   1.0000   1.0000   1.0000   1.0000   1.0000   1.0000
     1.0000   1.0000   1.0000   1.0000   1.0000   1.0000   1.0000   1.0000
     1.0000   1.0000   1.0000   1.0000   1.0000   1.0000   1.0000   1.0000
     1.0000   1.0000   1.0000   1.0000   1.0000   1.0000   1.0000   1.0000
     1.0000   1.0000   1.0000   1.0000   1.0000   1.0000   1.0000   1.0000
     0.0000   0.0000   0.0000   0.0000   0.0000   0.0000   0.0000   0.0000
     0.0000   0.0000   0.0000   0.0000   0.0000   0.0000   0.0000   0.0000
     0.0000   0.0000   0.0000   0.0000   0.0000   0.0000   0.0000   0.0000
     0.0000   0.0000   0.0000   0.0000

          k =-0.2500-0.2500-0.7500 ( 47670 PWs)   bands (ev):

    -6.0753  -6.0746  -5.9585  -5.9563  -5.8584  -5.8558  -5.8166  -5.8150
    -5.7890  -5.7863  -5.7370  -5.7303  -5.6920  -5.6910  -5.6830  -5.6807
    -3.5133  -3.5118  -3.5085  -3.5073  -2.8747  -2.8741  -2.8498  -2.8474
    -2.8453  -2.8443  -2.6129  -2.6075  -2.5828  -2.5764  -2.5715  -2.5634
    -2.5579  -2.5552  -2.5483  -2.5421  -2.5400  -2.5228  -2.5093  -2.5046
    -2.5016  -2.4891  -2.4888  -2.4480  -2.4416  -2.4384  -2.4281  -2.4132
    -2.3711  -2.2969  -2.2727  -2.2065  -2.1737  -2.1571  -1.1027  -1.0907
    -1.0385  -1.0258  -1.0012  -0.9994  -0.9730  -0.9711  -0.9366  -0.9280
    -0.9203  -0.9134  -0.8872  -0.8842  -0.8251  -0.8024  -0.7940  -0.7758
    -0.7737  -0.7568  -0.7561  -0.7470  -0.7334  -0.7301  -0.7202  -0.7173
    -0.6910  -0.6789  -0.6673  -0.6540  -0.6478  -0.6395  -0.6219  -0.6154
    -0.6007  -0.5730  -0.5360  -0.4927  -0.4825  -0.4546  -0.3775  -0.3615
     0.1314   0.1555   0.2600   0.3268   0.3815   0.4998   0.6659   0.6842
     0.8972   0.9000   1.2117   1.2614   1.5238   1.5806   2.3092   2.3288
     2.6003   2.6139   2.6647   2.7433   2.7653   2.7791   3.0141   3.0243
     3.1475   3.1590   3.3124   3.3134   3.3450   3.3667   3.3900   3.4813
     3.6577   3.7113   3.7590   3.7959   3.8662   3.8892   3.9031   3.9304
     3.9859   3.9901   4.1277   4.1908   4.5008   4.5735   4.6008   4.6425
     6.4795   6.5871   6.6237   6.7213   7.0666   7.1043   7.1758   7.2036
     7.2823   7.3438   7.4153   7.4198   7.6468   7.6833   8.0392   8.0395
     8.3274   8.4947   8.6499   8.8876   9.2184   9.2351   9.3193   9.3336
     9.3589   9.3764   9.5419   9.5607

     occupation numbers 
     1.0000   1.0000   1.0000   1.0000   1.0000   1.0000   1.0000   1.0000
     1.0000   1.0000   1.0000   1.0000   1.0000   1.0000   1.0000   1.0000
     1.0000   1.0000   1.0000   1.0000   1.0000   1.0000   1.0000   1.0000
     1.0000   1.0000   1.0000   1.0000   1.0000   1.0000   1.0000   1.0000
     1.0000   1.0000   1.0000   1.0000   1.0000   1.0000   1.0000   1.0000
     1.0000   1.0000   1.0000   1.0000   1.0000   1.0000   1.0000   1.0000
     1.0000   1.0000   1.0000   1.0000   1.0000   1.0000   1.0000   1.0000
     1.0000   1.0000   1.0000   1.0000   1.0000   1.0000   1.0000   1.0000
     1.0000   1.0000   1.0000   1.0000   1.0000   1.0000   1.0000   1.0000
     1.0000   1.0000   1.0000   1.0000   1.0000   1.0000   1.0000   1.0000
     1.0000   1.0000   1.0000   1.0000   1.0000   1.0000   1.0000   1.0000
     1.0000   1.0000   1.0000   1.0000   1.0000   1.0000   1.0000   1.0000
     1.0000   1.0000   1.0000   1.0000   1.0000   1.0000   1.0000   1.0000
     1.0000   1.0000   1.0000   1.0000   1.0000   1.0000   1.0000   1.0000
     1.0000   1.0000   1.0000   1.0000   1.0000   1.0000   1.0000   1.0000
     1.0000   1.0000   1.0000   1.0000   1.0000   1.0000   1.0000   1.0000
     1.0000   1.0000   1.0000   1.0000   1.0000   1.0000   1.0000   1.0000
     1.0000   1.0000   1.0000   1.0000   1.0000   1.0000   1.0000   1.0000
     0.0000   0.0000   0.0000   0.0000   0.0000   0.0000   0.0000   0.0000
     0.0000   0.0000   0.0000   0.0000   0.0000   0.0000   0.0000   0.0000
     0.0000   0.0000   0.0000   0.0000   0.0000   0.0000   0.0000   0.0000
     0.0000   0.0000   0.0000   0.0000

          k = 0.2500 0.2500-0.7500 ( 47670 PWs)   bands (ev):

    -6.0748  -6.0741  -5.9615  -5.9593  -5.8563  -5.8538  -5.8165  -5.8149
    -5.7887  -5.7859  -5.7369  -5.7302  -5.6920  -5.6908  -5.6831  -5.6806
    -3.5132  -3.5117  -3.5085  -3.5073  -2.8747  -2.8742  -2.8499  -2.8474
    -2.8453  -2.8443  -2.6098  -2.6055  -2.5864  -2.5796  -2.5737  -2.5671
    -2.5535  -2.5514  -2.5464  -2.5411  -2.5399  -2.5272  -2.5094  -2.5032
    -2.5024  -2.4897  -2.4874  -2.4490  -2.4402  -2.4377  -2.4265  -2.4126
    -2.3734  -2.2969  -2.2727  -2.2062  -2.1740  -2.1574  -1.0989  -1.0882
[...]
    -2.3714  -2.2973  -2.2734  -2.2053  -2.1736  -2.1575  -1.0986  -1.0879
    -1.0425  -1.0281  -1.0013  -0.9986  -0.9704  -0.9681  -0.9346  -0.9266
    -0.9229  -0.9153  -0.8865  -0.8854  -0.8244  -0.7989  -0.7912  -0.7763
    -0.7738  -0.7592  -0.7557  -0.7487  -0.7336  -0.7319  -0.7166  -0.7158
    -0.6930  -0.6774  -0.6676  -0.6535  -0.6489  -0.6353  -0.6217  -0.6184
    -0.6005  -0.5733  -0.5348  -0.4912  -0.4839  -0.4551  -0.3782  -0.3617
     0.1300   0.1526   0.2605   0.3250   0.3852   0.5044   0.6608   0.6790
     0.8894   0.8921   1.2093   1.2589   1.5300   1.5868   2.3127   2.3326
     2.6047   2.6171   2.6670   2.7466   2.7675   2.7853   3.0144   3.0253
     3.1482   3.1600   3.3092   3.3113   3.3445   3.3657   3.3922   3.4843
     3.6572   3.7097   3.7602   3.7950   3.8637   3.8873   3.9032   3.9312
     3.9874   3.9918   4.1274   4.1910   4.4995   4.5703   4.6019   4.6416
     6.4790   6.5829   6.6253   6.7156   7.0714   7.1050   7.1759   7.1998
     7.2848   7.3438   7.4182   7.4194   7.6438   7.6802   8.0304   8.0325
     8.3298   8.4948   8.6503   8.8877   9.2161   9.2319   9.3173   9.3325
     9.3572   9.3752   9.5389   9.5567

     occupation numbers 
     1.0000   1.0000   1.0000   1.0000   1.0000   1.0000   1.0000   1.0000
     1.0000   1.0000   1.0000   1.0000   1.0000   1.0000   1.0000   1.0000
     1.0000   1.0000   1.0000   1.0000   1.0000   1.0000   1.0000   1.0000
     1.0000   1.0000   1.0000   1.0000   1.0000   1.0000   1.0000   1.0000
     1.0000   1.0000   1.0000   1.0000   1.0000   1.0000   1.0000   1.0000
     1.0000   1.0000   1.0000   1.0000   1.0000   1.0000   1.0000   1.0000
     1.0000   1.0000   1.0000   1.0000   1.0000   1.0000   1.0000   1.0000
     1.0000   1.0000   1.0000   1.0000   1.0000   1.0000   1.0000   1.0000
     1.0000   1.0000   1.0000   1.0000   1.0000   1.0000   1.0000   1.0000
     1.0000   1.0000   1.0000   1.0000   1.0000   1.0000   1.0000   1.0000
     1.0000   1.0000   1.0000   1.0000   1.0000   1.0000   1.0000   1.0000
     1.0000   1.0000   1.0000   1.0000   1.0000   1.0000   1.0000   1.0000
     1.0000   1.0000   1.0000   1.0000   1.0000   1.0000   1.0000   1.0000
     1.0000   1.0000   1.0000   1.0000   1.0000   1.0000   1.0000   1.0000
     1.0000   1.0000   1.0000   1.0000   1.0000   1.0000   1.0000   1.0000
     1.0000   1.0000   1.0000   1.0000   1.0000   1.0000   1.0000   1.0000
     1.0000   1.0000   1.0000   1.0000   1.0000   1.0000   1.0000   1.0000
     1.0000   1.0000   1.0000   1.0000   1.0000   1.0000   1.0000   1.0000
     0.0000   0.0000   0.0000   0.0000   0.0000   0.0000   0.0000   0.0000
     0.0000   0.0000   0.0000   0.0000   0.0000   0.0000   0.0000   0.0000
     0.0000   0.0000   0.0000   0.0000   0.0000   0.0000   0.0000   0.0000
     0.0000   0.0000   0.0000   0.0000

          k = 0.7500-0.2500-0.2500 ( 47670 PWs)   bands (ev):

    -6.0727  -6.0719  -5.9623  -5.9601  -5.8558  -5.8533  -5.8135  -5.8119
    -5.7887  -5.7860  -5.7388  -5.7320  -5.6935  -5.6924  -5.6841  -5.6810
    -3.5145  -3.5131  -3.5106  -3.5095  -2.8761  -2.8756  -2.8516  -2.8491
    -2.8469  -2.8458  -2.6094  -2.6047  -2.5845  -2.5788  -2.5724  -2.5658
    -2.5538  -2.5531  -2.5469  -2.5405  -2.5401  -2.5269  -2.5092  -2.5031
    -2.5026  -2.4894  -2.4875  -2.4487  -2.4406  -2.4381  -2.4267  -2.4123
    -2.3727  -2.2967  -2.2725  -2.2059  -2.1737  -2.1572  -1.0978  -1.0873
    -1.0452  -1.0299  -0.9978  -0.9966  -0.9704  -0.9700  -0.9354  -0.9277
    -0.9203  -0.9157  -0.8867  -0.8862  -0.8253  -0.7989  -0.7925  -0.7757
    -0.7729  -0.7566  -0.7557  -0.7469  -0.7342  -0.7325  -0.7185  -0.7185
    -0.6917  -0.6772  -0.6658  -0.6560  -0.6480  -0.6375  -0.6195  -0.6179
    -0.6003  -0.5717  -0.5359  -0.4926  -0.4831  -0.4555  -0.3777  -0.3618
     0.1314   0.1528   0.2592   0.3255   0.3826   0.4996   0.6642   0.6822
     0.8944   0.8972   1.2046   1.2550   1.5288   1.5848   2.3139   2.3341
     2.6034   2.6159   2.6675   2.7457   2.7676   2.7830   3.0162   3.0265
     3.1509   3.1623   3.3112   3.3117   3.3451   3.3666   3.3927   3.4842
     3.6554   3.7086   3.7589   3.7946   3.8653   3.8882   3.9018   3.9287
     3.9850   3.9893   4.1261   4.1907   4.4978   4.5692   4.6054   4.6447
     6.4818   6.5808   6.6275   6.7141   7.0681   7.1042   7.1781   7.2058
     7.2823   7.3451   7.4186   7.4251   7.6434   7.6790   8.0284   8.0286
     8.3272   8.4939   8.6488   8.8886   9.2164   9.2344   9.3153   9.3325
     9.3580   9.3718   9.5416   9.5561

     occupation numbers 
     1.0000   1.0000   1.0000   1.0000   1.0000   1.0000   1.0000   1.0000
     1.0000   1.0000   1.0000   1.0000   1.0000   1.0000   1.0000   1.0000
     1.0000   1.0000   1.0000   1.0000   1.0000   1.0000   1.0000   1.0000
     1.0000   1.0000   1.0000   1.0000   1.0000   1.0000   1.0000   1.0000
     1.0000   1.0000   1.0000   1.0000   1.0000   1.0000   1.0000   1.0000
     1.0000   1.0000   1.0000   1.0000   1.0000   1.0000   1.0000   1.0000
     1.0000   1.0000   1.0000   1.0000   1.0000   1.0000   1.0000   1.0000
     1.0000   1.0000   1.0000   1.0000   1.0000   1.0000   1.0000   1.0000
     1.0000   1.0000   1.0000   1.0000   1.0000   1.0000   1.0000   1.0000
     1.0000   1.0000   1.0000   1.0000   1.0000   1.0000   1.0000   1.0000
     1.0000   1.0000   1.0000   1.0000   1.0000   1.0000   1.0000   1.0000
     1.0000   1.0000   1.0000   1.0000   1.0000   1.0000   1.0000   1.0000
     1.0000   1.0000   1.0000   1.0000   1.0000   1.0000   1.0000   1.0000
     1.0000   1.0000   1.0000   1.0000   1.0000   1.0000   1.0000   1.0000
     1.0000   1.0000   1.0000   1.0000   1.0000   1.0000   1.0000   1.0000
     1.0000   1.0000   1.0000   1.0000   1.0000   1.0000   1.0000   1.0000
     1.0000   1.0000   1.0000   1.0000   1.0000   1.0000   1.0000   1.0000
     1.0000   1.0000   1.0000   1.0000   1.0000   1.0000   1.0000   1.0000
     0.0000   0.0000   0.0000   0.0000   0.0000   0.0000   0.0000   0.0000
     0.0000   0.0000   0.0000   0.0000   0.0000   0.0000   0.0000   0.0000
     0.0000   0.0000   0.0000   0.0000   0.0000   0.0000   0.0000   0.0000
     0.0000   0.0000   0.0000   0.0000

     the Fermi energy is     5.4967 ev

!    total energy              =   -1026.69226989 Ry
     Harris-Foulkes estimate   =   -1026.69226989 Ry
     estimated scf accuracy    <          1.1E-11 Ry

     The total energy is the sum of the following terms:

     one-electron contribution =    -281.47423933 Ry
     hartree contribution      =     233.97767317 Ry
     xc contribution           =    -379.20235657 Ry
     ewald contribution        =    -599.99334701 Ry
     smearing contrib. (-TS)   =      -0.00000015 Ry

     convergence has been achieved in  17 iterations

     Forces acting on atoms (cartesian axes, Ry/au):

     atom    1 type  2   force =     0.00025813   -0.00044268   -0.00044268
     atom    2 type  3   force =     0.00061123   -0.00023414   -0.00023414
     atom    3 type  1   force =    -0.00012793   -0.00001917   -0.00073365
     atom    4 type  3   force =     0.00023684    0.00030688   -0.00058930
     atom    5 type  1   force =     0.00017836    0.00010275    0.00010275
     atom    6 type  3   force =     0.00054104    0.00041015    0.00041015
     atom    7 type  1   force =    -0.00016474    0.00045405   -0.00027762
     atom    8 type  3   force =     0.00013635    0.00081325    0.00008390
     atom    9 type  1   force =    -0.00012793   -0.00073365   -0.00001917
     atom   10 type  3   force =     0.00023684   -0.00058930    0.00030688
     atom   11 type  1   force =    -0.00047507   -0.00039880   -0.00039880
     atom   12 type  3   force =    -0.00032315   -0.00003090   -0.00003090
     atom   13 type  1   force =    -0.00016474   -0.00027762    0.00045405
     atom   14 type  3   force =     0.00013635    0.00008390    0.00081325
     atom   15 type  1   force =    -0.00054354    0.00009998    0.00009998
     atom   16 type  3   force =    -0.00040806    0.00045530    0.00045530
     The non-local contrib.  to forces
     atom    1 type  2   force =     0.00055986   -0.00010781   -0.00010781
     atom    2 type  3   force =     0.00171522    0.00159215    0.00159215
     atom    3 type  1   force =     0.00011368   -0.00021362   -0.00202950
     atom    4 type  3   force =    -0.00087294   -0.00060124   -0.00009640
     atom    5 type  1   force =     0.00158122   -0.00030212   -0.00030212
     atom    6 type  3   force =     0.00233044   -0.00242527   -0.00242527
     atom    7 type  1   force =    -0.00045693    0.00171137   -0.00005472
     atom    8 type  3   force =    -0.00197179    0.00186634   -0.00217627
     atom    9 type  1   force =     0.00011368   -0.00202950   -0.00021362
     atom   10 type  3   force =    -0.00087294   -0.00009640   -0.00060124
     atom   11 type  1   force =    -0.00192760    0.00003135    0.00003135
     atom   12 type  3   force =    -0.00079928   -0.00016892   -0.00016892
     atom   13 type  1   force =    -0.00045693   -0.00005472    0.00171137
     atom   14 type  3   force =    -0.00197179   -0.00217627    0.00186634
     atom   15 type  1   force =    -0.00048408   -0.00005481   -0.00005481
     atom   16 type  3   force =     0.00009289    0.00028512    0.00028512
     The ionic contribution  to forces
     atom    1 type  2   force =     0.02504632   -0.01242432   -0.01242432
     atom    2 type  3   force =     0.02897538    0.00886917    0.00886917
     atom    3 type  1   force =    -0.00761810    0.01851879   -0.05219491
     atom    4 type  3   force =     0.01183122    0.02478246   -0.01614094
     atom    5 type  1   force =     0.03672863    0.01051641    0.01051641
     atom    6 type  3   force =     0.01305652    0.00385207    0.00385207
     atom    7 type  1   force =     0.00151858    0.04609682   -0.02507364
     atom    8 type  3   force =    -0.00692386    0.02390049   -0.01989754
     atom    9 type  1   force =    -0.00761810   -0.05219491    0.01851879
     atom   10 type  3   force =     0.01183122   -0.01614094    0.02478246
     atom   11 type  1   force =    -0.04331590   -0.01700439   -0.01700439
     atom   12 type  3   force =    -0.00419376   -0.00015827   -0.00015827
     atom   13 type  1   force =     0.00151858   -0.02507364    0.04609682
     atom   14 type  3   force =    -0.00692386   -0.01989754    0.02390049
     atom   15 type  1   force =    -0.03179299    0.00845904    0.00845904
     atom   16 type  3   force =    -0.02211990   -0.00210124   -0.00210124
     The local contribution  to forces
     atom    1 type  2   force =    -0.02530268    0.01202829    0.01202829
     atom    2 type  3   force =    -0.02937441   -0.01001424   -0.01001424
     atom    3 type  1   force =     0.00738005   -0.01831339    0.05320266
     atom    4 type  3   force =    -0.01087498   -0.02398060    0.01563217
     atom    5 type  1   force =    -0.03800707   -0.01011129   -0.01011129
     atom    6 type  3   force =    -0.01403985   -0.00183789   -0.00183789
     atom    7 type  1   force =    -0.00130949   -0.04714452    0.02476227
     atom    8 type  3   force =     0.00828494   -0.02422525    0.02137465
     atom    9 type  1   force =     0.00738005    0.05320266   -0.01831339
     atom   10 type  3   force =    -0.01087498    0.01563217   -0.02398060
     atom   11 type  1   force =     0.04455959    0.01649660    0.01649660
     atom   12 type  3   force =     0.00453355    0.00026528    0.00026528
     atom   13 type  1   force =    -0.00130949    0.02476227   -0.04714452
     atom   14 type  3   force =     0.00828494    0.02137465   -0.02422525
     atom   15 type  1   force =     0.03156832   -0.00831504   -0.00831504
     atom   16 type  3   force =     0.02163774    0.00232350    0.00232350
     The core correction contribution to forces
     atom    1 type  2   force =    -0.00004629    0.00006072    0.00006072
     atom    2 type  3   force =    -0.00070476   -0.00068161   -0.00068161
     atom    3 type  1   force =    -0.00000244   -0.00001296    0.00028924
     atom    4 type  3   force =     0.00015370    0.00010659    0.00001554
     atom    5 type  1   force =    -0.00012657   -0.00000077   -0.00000077
     atom    6 type  3   force =    -0.00080610    0.00082165    0.00082165
     atom    7 type  1   force =     0.00008402   -0.00021053    0.00008894
     atom    8 type  3   force =     0.00074653   -0.00072937    0.00078398
     atom    9 type  1   force =    -0.00000244    0.00028924   -0.00001296
     atom   10 type  3   force =     0.00015370    0.00001554    0.00010659
     atom   11 type  1   force =     0.00020972    0.00007701    0.00007701
     atom   12 type  3   force =     0.00013712    0.00003203    0.00003203
     atom   13 type  1   force =     0.00008402    0.00008894   -0.00021053
     atom   14 type  3   force =     0.00074653    0.00078398   -0.00072937
     atom   15 type  1   force =     0.00016560    0.00001139    0.00001139
     atom   16 type  3   force =    -0.00001819   -0.00005310   -0.00005310
     The Hubbard contrib.    to forces
     atom    1 type  2   force =     0.00000000    0.00000000    0.00000000
     atom    2 type  3   force =     0.00000000    0.00000000    0.00000000
     atom    3 type  1   force =     0.00000000    0.00000000    0.00000000
     atom    4 type  3   force =     0.00000000    0.00000000    0.00000000
     atom    5 type  1   force =     0.00000000    0.00000000    0.00000000
     atom    6 type  3   force =     0.00000000    0.00000000    0.00000000
     atom    7 type  1   force =     0.00000000    0.00000000    0.00000000
     atom    8 type  3   force =     0.00000000    0.00000000    0.00000000
     atom    9 type  1   force =     0.00000000    0.00000000    0.00000000
     atom   10 type  3   force =     0.00000000    0.00000000    0.00000000
     atom   11 type  1   force =     0.00000000    0.00000000    0.00000000
     atom   12 type  3   force =     0.00000000    0.00000000    0.00000000
     atom   13 type  1   force =     0.00000000    0.00000000    0.00000000
     atom   14 type  3   force =     0.00000000    0.00000000    0.00000000
     atom   15 type  1   force =     0.00000000    0.00000000    0.00000000
     atom   16 type  3   force =     0.00000000    0.00000000    0.00000000
     The SCF correction term to forces
     atom    1 type  2   force =     0.00000104    0.00000041    0.00000041
     atom    2 type  3   force =    -0.00000010    0.00000034    0.00000034
     atom    3 type  1   force =    -0.00000101    0.00000196   -0.00000118
     atom    4 type  3   force =    -0.00000006   -0.00000037    0.00000030
     atom    5 type  1   force =     0.00000226    0.00000047    0.00000047
     atom    6 type  3   force =     0.00000015   -0.00000045   -0.00000045
     atom    7 type  1   force =    -0.00000080    0.00000087   -0.00000051
     atom    8 type  3   force =     0.00000063    0.00000100   -0.00000096
     atom    9 type  1   force =    -0.00000101   -0.00000118    0.00000196
     atom   10 type  3   force =    -0.00000006    0.00000030   -0.00000037
     atom   11 type  1   force =    -0.00000076    0.00000058    0.00000058
     atom   12 type  3   force =    -0.00000066   -0.00000105   -0.00000105
     atom   13 type  1   force =    -0.00000080   -0.00000051    0.00000087
     atom   14 type  3   force =     0.00000063   -0.00000096    0.00000100
     atom   15 type  1   force =    -0.00000028   -0.00000064   -0.00000064
     atom   16 type  3   force =    -0.00000048    0.00000098    0.00000098

     Total force =     0.002696     Total SCF correction =     0.000006

     bfgs converged in   4 scf cycles and   3 bfgs steps
     (criteria: energy <  1.0E-04 Ry, force <  1.0E-03 Ry/Bohr)

     End of BFGS Geometry Optimization

     Final energy   =   -1026.6922698904 Ry
Begin final coordinates

ATOMIC_POSITIONS (bohr)
Cd       0.002469366  -0.003087607  -0.003087607
Te       3.136804797   3.129630425   3.129630425
Hg      -6.263029848   6.262828791  -0.005362338
Te      -3.129406962   9.396772175   3.125892501
Hg       0.001087045   6.263110186   6.263110186
Te       3.135734884   9.397065633   9.397065633
Hg      -6.264078928  12.528272245   6.260024644
Te      -3.130421345  15.663172917   9.393555703
Hg      -6.263029848  -0.005362338   6.262828791
Te      -3.129406962   3.125892501   9.396772175
Hg     -12.528126941   6.259732479   6.259732479
Te      -9.396903937   9.393384016   9.393384016
Hg      -6.264078928   6.260024644  12.528272245
Te      -3.130421345   9.393555703  15.663172917
Hg     -12.529459975  12.525430939  12.525430939
Te      -9.397731074  15.659577292  15.659577292
End final coordinates



     Writing output data file x_0.125.save/
 
     init_run     :     67.52s CPU     27.01s WALL (       1 calls)
     electrons    :   7111.53s CPU   2106.80s WALL (       4 calls)
     update_pot   :     10.14s CPU      3.28s WALL (       3 calls)
     forces       :    102.33s CPU     47.17s WALL (       4 calls)

     Called by init_run:
     wfcinit      :     47.74s CPU     13.91s WALL (       1 calls)
     wfcinit:atom :      0.23s CPU      0.07s WALL (       3 calls)
     wfcinit:wfcr :     45.43s CPU     13.18s WALL (       3 calls)
     potinit      :      5.59s CPU      3.77s WALL (       1 calls)
     hinit0       :      8.32s CPU      5.39s WALL (       1 calls)

     Called by electrons:
     c_bands      :   6025.97s CPU   1786.24s WALL (      42 calls)
     sum_band     :    894.03s CPU    255.40s WALL (      42 calls)
     v_of_rho     :     38.59s CPU     11.72s WALL (      42 calls)
     v_h          :      3.39s CPU      1.06s WALL (      42 calls)
     v_xc         :     38.02s CPU     11.42s WALL (      46 calls)
     newd         :    131.19s CPU     46.92s WALL (      42 calls)
     mix_rho      :     20.02s CPU      5.50s WALL (      42 calls)

     Called by c_bands:
     init_us_2    :      8.99s CPU      2.63s WALL (     267 calls)
     cegterg      :   5810.45s CPU   1689.18s WALL (     126 calls)

     Called by sum_band:
     sum_band:bec :    106.40s CPU     32.02s WALL (     126 calls)
     addusdens    :    122.65s CPU     37.40s WALL (      42 calls)

     Called by *egterg:
     h_psi        :   3349.36s CPU    921.68s WALL (     600 calls)
     s_psi        :    496.32s CPU    154.61s WALL (     600 calls)
     g_psi        :      2.36s CPU      0.60s WALL (     471 calls)
     cdiaghg      :   1395.80s CPU    440.43s WALL (     576 calls)
     cegterg:over :    277.14s CPU     81.40s WALL (     471 calls)
     cegterg:upda :    184.62s CPU     56.34s WALL (     471 calls)
     cegterg:last :     69.86s CPU     21.14s WALL (     130 calls)
     cdiaghg:chol :    124.94s CPU     39.05s WALL (     576 calls)
     cdiaghg:inve :     59.63s CPU     18.02s WALL (     576 calls)
     cdiaghg:para :     54.41s CPU     23.63s WALL (    1152 calls)

     Called by h_psi:
     h_psi:pot    :   3345.79s CPU    920.39s WALL (     600 calls)
     h_psi:calbec :    179.90s CPU     49.61s WALL (     600 calls)
     vloc_psi     :   2688.20s CPU    742.02s WALL (     600 calls)
     add_vuspsi   :    477.53s CPU    128.71s WALL (     600 calls)

     General routines
     calbec       :    275.64s CPU     79.01s WALL (     774 calls)
     fft          :     51.68s CPU     15.89s WALL (     931 calls)
     ffts         :      8.94s CPU      3.67s WALL (     336 calls)
     fftw         :   2318.00s CPU    626.18s WALL (  286616 calls)
     interpolate  :     13.31s CPU      4.51s WALL (     168 calls)
 
     Parallel routines
     fft_scatt_xy :    327.29s CPU     88.08s WALL (  287883 calls)
     fft_scatt_yz :   1145.11s CPU    318.82s WALL (  287883 calls)
 
     PWSCF        :      2h 2m CPU  37m 5.69s WALL

 
   This run was terminated on:  17:42:52  17Apr2019            

=------------------------------------------------------------------------------=
   JOB DONE.
=------------------------------------------------------------------------------=
