
     Program PWSCF v.6.3 starts on 30May2019 at 13:44: 7 

     This program is part of the open-source Quantum ESPRESSO suite
     for quantum simulation of materials; please cite
         "P. Giannozzi et al., J. Phys.:Condens. Matter 21 395502 (2009);
         "P. Giannozzi et al., J. Phys.:Condens. Matter 29 465901 (2017);
          URL http://www.quantum-espresso.org", 
     in publications or presentations arising from this work. More details at
     http://www.quantum-espresso.org/quote

     Parallel version (MPI), running on     2 processors

     MPI processes distributed on     1 nodes
     R & G space division:  proc/nbgrp/npool/nimage =       2
     Waiting for input...
     Reading input from standard input
Warning: card   0.025000  0.025000  0.050000    1 ignored

     Current dimensions of program PWSCF are:
     Max number of different atomic species (ntypx) = 10
     Max number of k-points (npk) =  40000
     Max angular momentum in pseudopotentials (lmaxx) =  3

     Atomic positions and unit cell read from directory:
     ./tmp/SC_Trev.save/

     Message from routine setup:
     At least one non s.o. pseudo

     Subspace diagonalization in iterative solution of the eigenvalue problem:
     a serial algorithm will be used

     Found symmetry operation: I + ( -0.5000  0.0000  0.0000)
     This is a supercell, fractional translations are disabled

     Parallelization info
     --------------------
     sticks:   dense  smooth     PW     G-vecs:    dense   smooth      PW
     Min         579     579    167                12910    12910    1971
     Max         580     580    170                12911    12911    1972
     Sum        1159    1159    337                25821    25821    3943



     bravais-lattice index     =            2
     lattice parameter (alat)  =      20.4200  a.u.
     unit-cell volume          =    2128.6645 (a.u.)^3
     number of atoms/cell      =           16
     number of atomic types    =            1
     number of electrons       =        64.00
     number of Kohn-Sham states=           80
     kinetic-energy cutoff     =      20.0000  Ry
     charge density cutoff     =      80.0000  Ry
     Exchange-correlation      =  SLA  PZ   NOGX NOGC ( 1  1  0  0 0 0)
     Non magnetic calculation with spin-orbit


     celldm(1)=  20.420000  celldm(2)=   0.000000  celldm(3)=   0.000000
     celldm(4)=   0.000000  celldm(5)=   0.000000  celldm(6)=   0.000000

     crystal axes: (cart. coord. in units of alat)
               a(1) = (  -0.500000   0.000000   0.500000 )  
               a(2) = (   0.000000   0.500000   0.500000 )  
               a(3) = (  -0.500000   0.500000   0.000000 )  

     reciprocal axes: (cart. coord. in units 2 pi/alat)
               b(1) = ( -1.000000 -1.000000  1.000000 )  
               b(2) = (  1.000000  1.000000  1.000000 )  
               b(3) = ( -1.000000  1.000000 -1.000000 )  


     PseudoPot. # 1 for Si read from file:
     ./Si.pz-vbc.UPF
     MD5 check sum: bcd8ae23180a2f07cc8655fe7dcd9644
     Pseudo is Norm-conserving, Zval =  4.0
     Generated by new atomic code, or converted to UPF format
     Using radial grid of  431 points,  2 beta functions with: 
                l(1) =   0
                l(2) =   1

     atomic species   valence    mass     pseudopotential
        Si             4.00    28.08600     Si( 1.00)

     24 Sym. Ops. (no inversion) found


                                    s                        frac. trans.

      isym =  1     identity                                     

 cryst.   s( 1) = (     1          0          0      )
                  (     0          1          0      )
                  (     0          0          1      )

 cart.    s( 1) = (  1.0000000  0.0000000  0.0000000 )
                  (  0.0000000  1.0000000  0.0000000 )
                  (  0.0000000  0.0000000  1.0000000 )


      isym =  2     180 deg rotation - cart. axis [0,0,1]        

 cryst.   s( 2) = (     0          1         -1      )
                  (     1          0         -1      )
                  (     0          0         -1      )

 cart.    s( 2) = ( -1.0000000  0.0000000  0.0000000 )
                  (  0.0000000 -1.0000000  0.0000000 )
                  (  0.0000000  0.0000000  1.0000000 )


      isym =  3     180 deg rotation - cart. axis [0,1,0]        

 cryst.   s( 3) = (    -1          0          0      )
                  (    -1          0          1      )
                  (    -1          1          0      )

 cart.    s( 3) = ( -1.0000000  0.0000000  0.0000000 )
                  (  0.0000000  1.0000000  0.0000000 )
                  (  0.0000000  0.0000000 -1.0000000 )


      isym =  4     180 deg rotation - cart. axis [1,0,0]        

 cryst.   s( 4) = (     0         -1          1      )
                  (     0         -1          0      )
                  (     1         -1          0      )

 cart.    s( 4) = (  1.0000000  0.0000000  0.0000000 )
                  (  0.0000000 -1.0000000  0.0000000 )
                  (  0.0000000  0.0000000 -1.0000000 )


      isym =  5     120 deg rotation - cart. axis [-1,-1,-1]     

 cryst.   s( 5) = (    -1          0          1      )
                  (    -1          1          0      )
                  (    -1          0          0      )

 cart.    s( 5) = (  0.0000000  1.0000000  0.0000000 )
                  (  0.0000000  0.0000000  1.0000000 )
                  (  1.0000000  0.0000000  0.0000000 )


      isym =  6     120 deg rotation - cart. axis [-1,1,1]       

 cryst.   s( 6) = (     0          1          0      )
                  (     0          0          1      )
                  (     1          0          0      )

 cart.    s( 6) = (  0.0000000 -1.0000000  0.0000000 )
                  (  0.0000000  0.0000000  1.0000000 )
                  ( -1.0000000  0.0000000  0.0000000 )


      isym =  7     120 deg rotation - cart. axis [1,1,-1]       

 cryst.   s( 7) = (     1          0         -1      )
                  (     0          0         -1      )
                  (     0          1         -1      )

 cart.    s( 7) = (  0.0000000  1.0000000  0.0000000 )
                  (  0.0000000  0.0000000 -1.0000000 )
                  ( -1.0000000  0.0000000  0.0000000 )


      isym =  8     120 deg rotation - cart. axis [1,-1,1]       

 cryst.   s( 8) = (     0         -1          0      )
                  (     1         -1          0      )
                  (     0         -1          1      )

 cart.    s( 8) = (  0.0000000 -1.0000000  0.0000000 )
                  (  0.0000000  0.0000000 -1.0000000 )
                  (  1.0000000  0.0000000  0.0000000 )


      isym =  9     120 deg rotation - cart. axis [1,1,1]        

 cryst.   s( 9) = (     0          0         -1      )
                  (     0          1         -1      )
                  (     1          0         -1      )

 cart.    s( 9) = (  0.0000000  0.0000000  1.0000000 )
                  (  1.0000000  0.0000000  0.0000000 )
                  (  0.0000000  1.0000000  0.0000000 )


      isym = 10     120 deg rotation - cart. axis [-1,1,-1]      

 cryst.   s(10) = (    -1          1          0      )
                  (    -1          0          0      )
                  (    -1          0          1      )

 cart.    s(10) = (  0.0000000  0.0000000  1.0000000 )
                  ( -1.0000000  0.0000000  0.0000000 )
                  (  0.0000000 -1.0000000  0.0000000 )


      isym = 11     120 deg rotation - cart. axis [1,-1,-1]      

 cryst.   s(11) = (     0          0          1      )
                  (     1          0          0      )
                  (     0          1          0      )

 cart.    s(11) = (  0.0000000  0.0000000 -1.0000000 )
                  ( -1.0000000  0.0000000  0.0000000 )
                  (  0.0000000  1.0000000  0.0000000 )


      isym = 12     120 deg rotation - cart. axis [-1,-1,1]      

 cryst.   s(12) = (     1         -1          0      )
                  (     0         -1          1      )
                  (     0         -1          0      )

 cart.    s(12) = (  0.0000000  0.0000000 -1.0000000 )
                  (  1.0000000  0.0000000  0.0000000 )
                  (  0.0000000 -1.0000000  0.0000000 )


      isym = 13     inv. 180 deg rotation - cart. axis [1,1,0]   

 cryst.   s(13) = (     0          1          0      )
                  (     1          0          0      )
                  (     0          0          1      )

 cart.    s(13) = (  0.0000000 -1.0000000  0.0000000 )
                  ( -1.0000000  0.0000000  0.0000000 )
                  (  0.0000000  0.0000000  1.0000000 )


      isym = 14     inv. 180 deg rotation - cart. axis [1,-1,0]  

 cryst.   s(14) = (     1          0         -1      )
                  (     0          1         -1      )
                  (     0          0         -1      )

 cart.    s(14) = (  0.0000000  1.0000000  0.0000000 )
                  (  1.0000000  0.0000000  0.0000000 )
                  (  0.0000000  0.0000000  1.0000000 )


      isym = 15     inv.  90 deg rotation - cart. axis [0,0,-1]  

 cryst.   s(15) = (     0         -1          0      )
                  (     0         -1          1      )
                  (     1         -1          0      )

 cart.    s(15) = (  0.0000000 -1.0000000  0.0000000 )
                  (  1.0000000  0.0000000  0.0000000 )
                  (  0.0000000  0.0000000 -1.0000000 )


      isym = 16     inv.  90 deg rotation - cart. axis [0,0,1]   

 cryst.   s(16) = (    -1          0          1      )
                  (    -1          0          0      )
                  (    -1          1          0      )

 cart.    s(16) = (  0.0000000  1.0000000  0.0000000 )
                  ( -1.0000000  0.0000000  0.0000000 )
                  (  0.0000000  0.0000000 -1.0000000 )


      isym = 17     inv. 180 deg rotation - cart. axis [1,0,1]   

 cryst.   s(17) = (     1          0          0      )
                  (     0          0          1      )
                  (     0          1          0      )

 cart.    s(17) = (  0.0000000  0.0000000 -1.0000000 )
                  (  0.0000000  1.0000000  0.0000000 )
                  ( -1.0000000  0.0000000  0.0000000 )


      isym = 18     inv. 180 deg rotation - cart. axis [-1,0,1]  

 cryst.   s(18) = (    -1          0          0      )
                  (    -1          1          0      )
                  (    -1          0          1      )

 cart.    s(18) = (  0.0000000  0.0000000  1.0000000 )
                  (  0.0000000  1.0000000  0.0000000 )
                  (  1.0000000  0.0000000  0.0000000 )


      isym = 19     inv.  90 deg rotation - cart. axis [0,1,0]   

 cryst.   s(19) = (     0         -1          1      )
                  (     1         -1          0      )
                  (     0         -1          0      )

 cart.    s(19) = (  0.0000000  0.0000000 -1.0000000 )
                  (  0.0000000 -1.0000000  0.0000000 )
                  (  1.0000000  0.0000000  0.0000000 )


      isym = 20     inv.  90 deg rotation - cart. axis [0,-1,0]  

 cryst.   s(20) = (     0          1         -1      )
                  (     0          0         -1      )
                  (     1          0         -1      )

 cart.    s(20) = (  0.0000000  0.0000000  1.0000000 )
                  (  0.0000000 -1.0000000  0.0000000 )
                  ( -1.0000000  0.0000000  0.0000000 )


      isym = 21     inv. 180 deg rotation - cart. axis [0,1,1]   

 cryst.   s(21) = (     1         -1          0      )
                  (     0         -1          0      )
                  (     0         -1          1      )

 cart.    s(21) = (  1.0000000  0.0000000  0.0000000 )
                  (  0.0000000  0.0000000 -1.0000000 )
                  (  0.0000000 -1.0000000  0.0000000 )


      isym = 22     inv. 180 deg rotation - cart. axis [0,1,-1]  

 cryst.   s(22) = (     0          0          1      )
                  (     0          1          0      )
                  (     1          0          0      )

 cart.    s(22) = (  1.0000000  0.0000000  0.0000000 )
                  (  0.0000000  0.0000000  1.0000000 )
                  (  0.0000000  1.0000000  0.0000000 )


      isym = 23     inv.  90 deg rotation - cart. axis [-1,0,0]  

 cryst.   s(23) = (     0          0         -1      )
                  (     1          0         -1      )
                  (     0          1         -1      )

 cart.    s(23) = ( -1.0000000  0.0000000  0.0000000 )
                  (  0.0000000  0.0000000 -1.0000000 )
                  (  0.0000000  1.0000000  0.0000000 )


      isym = 24     inv.  90 deg rotation - cart. axis [1,0,0]   

 cryst.   s(24) = (    -1          1          0      )
                  (    -1          0          1      )
                  (    -1          0          0      )

 cart.    s(24) = ( -1.0000000  0.0000000  0.0000000 )
                  (  0.0000000  0.0000000  1.0000000 )
                  (  0.0000000 -1.0000000  0.0000000 )


     double point group T_d (-43m) 
     there are  8 classes and  3 irreducible representations
     the character table:

       E     -E    8C3   -8C3   3C2  6S4   -6S4  6s_d 
                               -3C2              -6s_d
G_6    2.00 -2.00  1.00 -1.00  0.00  1.41 -1.41  0.00
G_7    2.00 -2.00  1.00 -1.00  0.00 -1.41  1.41  0.00
G_8    4.00 -4.00 -1.00  1.00  0.00  0.00  0.00  0.00

     the symmetry operations in each class and the name of the first element:

     E             1
          identity                                               
     -E           -1
          identity E                                             
     8C3           5    7    8    6   12    9   10   11
          120 deg rotation - cart. axis [-1,-1,-1]               
     -8C3         -5   -7   -8   -6  -12   -9  -10  -11
          120 deg rotation - cart. axis [-1,-1,-1] E             
      3C2 -3C2     2   -2    3   -3    4   -4
          180 deg rotation - cart. axis [0,0,1]                  
     6S4          15   16   20   19   23   24
          inv.  90 deg rotation - cart. axis [0,0,-1]            
     -6S4        -15  -16  -20  -19  -23  -24
          inv.  90 deg rotation - cart. axis [0,0,-1] E          
     6s_d -6s_d   13  -13  -14   14   17  -17  -18   18   21  -21   22  -22
          inv. 180 deg rotation - cart. axis [1,1,0]             

   Cartesian axes

     site n.     atom                  positions (alat units)
         1           Si  tau(   1) = (   0.0000000   0.0000000   0.0000000  )
         2           Si  tau(   2) = (  -0.2500000   0.0000000   0.2500000  )
         3           Si  tau(   3) = (   0.0000000   0.2500000   0.2500000  )
         4           Si  tau(   4) = (  -0.2500000   0.2500000   0.0000000  )
         5           Si  tau(   5) = (  -0.2500000   0.2500000   0.5000000  )
         6           Si  tau(   6) = (  -0.2500000   0.5000000   0.2500000  )
         7           Si  tau(   7) = (  -0.5000000   0.2500000   0.2500000  )
         8           Si  tau(   8) = (  -0.5000000   0.5000000   0.5000000  )
         9           Si  tau(   9) = (  -0.1250000   0.1250000   0.1250000  )
        10           Si  tau(  10) = (  -0.3750000   0.1250000   0.3750000  )
        11           Si  tau(  11) = (  -0.1250000   0.3750000   0.3750000  )
        12           Si  tau(  12) = (  -0.3750000   0.3750000   0.1250000  )
        13           Si  tau(  13) = (  -0.3750000   0.3750000   0.6250000  )
        14           Si  tau(  14) = (  -0.3750000   0.6250000   0.3750000  )
        15           Si  tau(  15) = (  -0.6250000   0.3750000   0.3750000  )
        16           Si  tau(  16) = (  -0.6250000   0.6250000   0.6250000  )

   Crystallographic axes

     site n.     atom                  positions (cryst. coord.)
         1           Si  tau(   1) = (  0.0000000  0.0000000  0.0000000  )
         2           Si  tau(   2) = (  0.5000000  0.0000000  0.0000000  )
         3           Si  tau(   3) = (  0.0000000  0.5000000  0.0000000  )
         4           Si  tau(   4) = (  0.0000000  0.0000000  0.5000000  )
         5           Si  tau(   5) = (  0.5000000  0.5000000  0.0000000  )
         6           Si  tau(   6) = (  0.0000000  0.5000000  0.5000000  )
         7           Si  tau(   7) = (  0.5000000  0.0000000  0.5000000  )
         8           Si  tau(   8) = (  0.5000000  0.5000000  0.5000000  )
         9           Si  tau(   9) = (  0.1250000  0.1250000  0.1250000  )
        10           Si  tau(  10) = (  0.6250000  0.1250000  0.1250000  )
        11           Si  tau(  11) = (  0.1250000  0.6250000  0.1250000  )
        12           Si  tau(  12) = (  0.1250000  0.1250000  0.6250000  )
        13           Si  tau(  13) = (  0.6250000  0.6250000  0.1250000  )
        14           Si  tau(  14) = (  0.1250000  0.6250000  0.6250000  )
        15           Si  tau(  15) = (  0.6250000  0.1250000  0.6250000  )
        16           Si  tau(  16) = (  0.6250000  0.6250000  0.6250000  )

     number of k points=    71
                       cart. coord. in units 2pi/alat
        k(    1) = (   0.0000000   0.0000000   0.0000000), wk =   0.0140845
        k(    2) = (   0.0333330  -0.0333330  -0.0333330), wk =   0.0140845
        k(    3) = (   0.0666670  -0.0666670  -0.0666670), wk =   0.0140845
        k(    4) = (   0.1000000  -0.1000000  -0.1000000), wk =   0.0140845
        k(    5) = (   0.1333330  -0.1333330  -0.1333330), wk =   0.0140845
        k(    6) = (   0.1666670  -0.1666670  -0.1666670), wk =   0.0140845
        k(    7) = (   0.2000000  -0.2000000  -0.2000000), wk =   0.0140845
        k(    8) = (   0.2333330  -0.2333330  -0.2333330), wk =   0.0140845
        k(    9) = (   0.2666670  -0.2666670  -0.2666670), wk =   0.0140845
        k(   10) = (   0.3000000  -0.3000000  -0.3000000), wk =   0.0140845
        k(   11) = (   0.3333330  -0.3333330  -0.3333330), wk =   0.0140845
        k(   12) = (   0.3666670  -0.3666670  -0.3666670), wk =   0.0140845
        k(   13) = (   0.4000000  -0.4000000  -0.4000000), wk =   0.0140845
        k(   14) = (   0.4333330  -0.4333330  -0.4333330), wk =   0.0140845
        k(   15) = (   0.4666670  -0.4666670  -0.4666670), wk =   0.0140845
        k(   16) = (  -0.5000000   0.5000000   0.5000000), wk =   0.0140845
        k(   17) = (  -0.0666660   0.0000000   0.0000000), wk =   0.0140845
        k(   18) = (  -0.1333340   0.0000000   0.0000000), wk =   0.0140845
        k(   19) = (  -0.2000000   0.0000000   0.0000000), wk =   0.0140845
        k(   20) = (  -0.2666660   0.0000000   0.0000000), wk =   0.0140845
        k(   21) = (  -0.3333340   0.0000000   0.0000000), wk =   0.0140845
        k(   22) = (  -0.4000000   0.0000000   0.0000000), wk =   0.0140845
        k(   23) = (  -0.4666660   0.0000000   0.0000000), wk =   0.0140845
        k(   24) = (  -0.5333340   0.0000000   0.0000000), wk =   0.0140845
        k(   25) = (  -0.6000000   0.0000000   0.0000000), wk =   0.0140845
        k(   26) = (  -0.6666660   0.0000000   0.0000000), wk =   0.0140845
        k(   27) = (  -0.7333340   0.0000000   0.0000000), wk =   0.0140845
        k(   28) = (  -0.8000000   0.0000000   0.0000000), wk =   0.0140845
        k(   29) = (  -0.8666660   0.0000000   0.0000000), wk =   0.0140845
        k(   30) = (  -0.9333340   0.0000000   0.0000000), wk =   0.0140845
        k(   31) = (  -1.0000000   0.0000000   0.0000000), wk =   0.0140845
        k(   32) = (  -0.0000010   0.0333330   0.0333330), wk =   0.0140845
        k(   33) = (   0.0000010   0.0666670   0.0666670), wk =   0.0140845
        k(   34) = (   0.0000000   0.1000000   0.1000000), wk =   0.0140845
        k(   35) = (  -0.0000010   0.1333330   0.1333330), wk =   0.0140845
        k(   36) = (   0.0000010   0.1666670   0.1666670), wk =   0.0140845
        k(   37) = (   0.0000000   0.2000000   0.2000000), wk =   0.0140845
        k(   38) = (  -0.0000010   0.2333330   0.2333330), wk =   0.0140845
        k(   39) = (   0.0000010   0.2666670   0.2666670), wk =   0.0140845
        k(   40) = (   0.0000000   0.3000000   0.3000000), wk =   0.0140845
        k(   41) = (  -0.0000010   0.3333330   0.3333330), wk =   0.0140845
        k(   42) = (   0.0000010   0.3666670   0.3666670), wk =   0.0140845
        k(   43) = (   0.0000000   0.4000000   0.4000000), wk =   0.0140845
        k(   44) = (  -0.0000010   0.4333330   0.4333330), wk =   0.0140845
        k(   45) = (   0.0000010   0.4666670   0.4666670), wk =   0.0140845
        k(   46) = (   0.0000000   0.5000000   0.5000000), wk =   0.0140845
        k(   47) = (   0.5000000  -0.5000000   0.0000000), wk =   0.0140845
        k(   48) = (   0.5500000  -0.5500000   0.0000000), wk =   0.0140845
        k(   49) = (   0.6000000  -0.6000000   0.0000000), wk =   0.0140845
        k(   50) = (   0.6500000  -0.6500000   0.0000000), wk =   0.0140845
        k(   51) = (   0.7000000  -0.7000000   0.0000000), wk =   0.0140845
        k(   52) = (  -0.2500000   0.2500000   1.0000000), wk =   0.0140845
        k(   53) = (  -0.2000000   0.2000000   1.0000000), wk =   0.0140845
        k(   54) = (  -0.1500000   0.1500000   1.0000000), wk =   0.0140845
        k(   55) = (  -0.1000000   0.1000000   1.0000000), wk =   0.0140845
        k(   56) = (  -0.0500000   0.0500000   1.0000000), wk =   0.0140845
        k(   57) = (   0.0000000   0.0000000   1.0000000), wk =   0.0140845
        k(   58) = (   0.0500000  -0.0500000   1.0000000), wk =   0.0140845
        k(   59) = (   0.1000000  -0.1000000   1.0000000), wk =   0.0140845
        k(   60) = (   0.1500000  -0.1500000   1.0000000), wk =   0.0140845
        k(   61) = (   0.2000000  -0.2000000   1.0000000), wk =   0.0140845
        k(   62) = (  -0.7500000   0.7500000   0.0000000), wk =   0.0140845
        k(   63) = (  -0.4500000   0.4500000   0.0000000), wk =   0.0140845
        k(   64) = (  -0.4000000   0.4000000   0.0000000), wk =   0.0140845
        k(   65) = (  -0.3500000   0.3500000   0.0000000), wk =   0.0140845
        k(   66) = (  -0.3000000   0.3000000   0.0000000), wk =   0.0140845
        k(   67) = (  -0.2500000   0.2500000   0.0000000), wk =   0.0140845
        k(   68) = (  -0.2000000   0.2000000   0.0000000), wk =   0.0140845
        k(   69) = (  -0.1500000   0.1500000   0.0000000), wk =   0.0140845
        k(   70) = (  -0.1000000   0.1000000   0.0000000), wk =   0.0140845
        k(   71) = (  -0.0500000   0.0500000   0.0000000), wk =   0.0140845

                       cryst. coord.
        k(    1) = (   0.0000000   0.0000000   0.0000000), wk =   0.0140845
        k(    2) = (  -0.0333330  -0.0333330  -0.0333330), wk =   0.0140845
        k(    3) = (  -0.0666670  -0.0666670  -0.0666670), wk =   0.0140845
        k(    4) = (  -0.1000000  -0.1000000  -0.1000000), wk =   0.0140845
        k(    5) = (  -0.1333330  -0.1333330  -0.1333330), wk =   0.0140845
        k(    6) = (  -0.1666670  -0.1666670  -0.1666670), wk =   0.0140845
        k(    7) = (  -0.2000000  -0.2000000  -0.2000000), wk =   0.0140845
        k(    8) = (  -0.2333330  -0.2333330  -0.2333330), wk =   0.0140845
        k(    9) = (  -0.2666670  -0.2666670  -0.2666670), wk =   0.0140845
        k(   10) = (  -0.3000000  -0.3000000  -0.3000000), wk =   0.0140845
        k(   11) = (  -0.3333330  -0.3333330  -0.3333330), wk =   0.0140845
        k(   12) = (  -0.3666670  -0.3666670  -0.3666670), wk =   0.0140845
        k(   13) = (  -0.4000000  -0.4000000  -0.4000000), wk =   0.0140845
        k(   14) = (  -0.4333330  -0.4333330  -0.4333330), wk =   0.0140845
        k(   15) = (  -0.4666670  -0.4666670  -0.4666670), wk =   0.0140845
        k(   16) = (   0.5000000   0.5000000   0.5000000), wk =   0.0140845
        k(   17) = (   0.0333330   0.0000000   0.0333330), wk =   0.0140845
        k(   18) = (   0.0666670   0.0000000   0.0666670), wk =   0.0140845
        k(   19) = (   0.1000000   0.0000000   0.1000000), wk =   0.0140845
        k(   20) = (   0.1333330   0.0000000   0.1333330), wk =   0.0140845
        k(   21) = (   0.1666670   0.0000000   0.1666670), wk =   0.0140845
        k(   22) = (   0.2000000   0.0000000   0.2000000), wk =   0.0140845
        k(   23) = (   0.2333330   0.0000000   0.2333330), wk =   0.0140845
        k(   24) = (   0.2666670   0.0000000   0.2666670), wk =   0.0140845
        k(   25) = (   0.3000000   0.0000000   0.3000000), wk =   0.0140845
        k(   26) = (   0.3333330   0.0000000   0.3333330), wk =   0.0140845
        k(   27) = (   0.3666670   0.0000000   0.3666670), wk =   0.0140845
        k(   28) = (   0.4000000   0.0000000   0.4000000), wk =   0.0140845
        k(   29) = (   0.4333330   0.0000000   0.4333330), wk =   0.0140845
        k(   30) = (   0.4666670   0.0000000   0.4666670), wk =   0.0140845
        k(   31) = (   0.5000000   0.0000000   0.5000000), wk =   0.0140845
        k(   32) = (   0.0166670   0.0333330   0.0166670), wk =   0.0140845
        k(   33) = (   0.0333330   0.0666670   0.0333330), wk =   0.0140845
        k(   34) = (   0.0500000   0.1000000   0.0500000), wk =   0.0140845
        k(   35) = (   0.0666670   0.1333330   0.0666670), wk =   0.0140845
        k(   36) = (   0.0833330   0.1666670   0.0833330), wk =   0.0140845
        k(   37) = (   0.1000000   0.2000000   0.1000000), wk =   0.0140845
        k(   38) = (   0.1166670   0.2333330   0.1166670), wk =   0.0140845
        k(   39) = (   0.1333330   0.2666670   0.1333330), wk =   0.0140845
        k(   40) = (   0.1500000   0.3000000   0.1500000), wk =   0.0140845
        k(   41) = (   0.1666670   0.3333330   0.1666670), wk =   0.0140845
        k(   42) = (   0.1833330   0.3666670   0.1833330), wk =   0.0140845
        k(   43) = (   0.2000000   0.4000000   0.2000000), wk =   0.0140845
        k(   44) = (   0.2166670   0.4333330   0.2166670), wk =   0.0140845
        k(   45) = (   0.2333330   0.4666670   0.2333330), wk =   0.0140845
        k(   46) = (   0.2500000   0.5000000   0.2500000), wk =   0.0140845
        k(   47) = (  -0.2500000  -0.2500000  -0.5000000), wk =   0.0140845
        k(   48) = (  -0.2750000  -0.2750000  -0.5500000), wk =   0.0140845
        k(   49) = (  -0.3000000  -0.3000000  -0.6000000), wk =   0.0140845
        k(   50) = (  -0.3250000  -0.3250000  -0.6500000), wk =   0.0140845
        k(   51) = (  -0.3500000  -0.3500000  -0.7000000), wk =   0.0140845
        k(   52) = (   0.6250000   0.6250000   0.2500000), wk =   0.0140845
        k(   53) = (   0.6000000   0.6000000   0.2000000), wk =   0.0140845
        k(   54) = (   0.5750000   0.5750000   0.1500000), wk =   0.0140845
        k(   55) = (   0.5500000   0.5500000   0.1000000), wk =   0.0140845
        k(   56) = (   0.5250000   0.5250000   0.0500000), wk =   0.0140845
        k(   57) = (   0.5000000   0.5000000   0.0000000), wk =   0.0140845
        k(   58) = (   0.4750000   0.4750000  -0.0500000), wk =   0.0140845
        k(   59) = (   0.4500000   0.4500000  -0.1000000), wk =   0.0140845
        k(   60) = (   0.4250000   0.4250000  -0.1500000), wk =   0.0140845
        k(   61) = (   0.4000000   0.4000000  -0.2000000), wk =   0.0140845
        k(   62) = (   0.3750000   0.3750000   0.7500000), wk =   0.0140845
        k(   63) = (   0.2250000   0.2250000   0.4500000), wk =   0.0140845
        k(   64) = (   0.2000000   0.2000000   0.4000000), wk =   0.0140845
        k(   65) = (   0.1750000   0.1750000   0.3500000), wk =   0.0140845
        k(   66) = (   0.1500000   0.1500000   0.3000000), wk =   0.0140845
        k(   67) = (   0.1250000   0.1250000   0.2500000), wk =   0.0140845
        k(   68) = (   0.1000000   0.1000000   0.2000000), wk =   0.0140845
        k(   69) = (   0.0750000   0.0750000   0.1500000), wk =   0.0140845
        k(   70) = (   0.0500000   0.0500000   0.1000000), wk =   0.0140845
        k(   71) = (   0.0250000   0.0250000   0.0500000), wk =   0.0140845

     Dense  grid:    25821 G-vectors     FFT dimensions: (  45,  45,  45)

     Dynamical RAM for                 wfc:       3.92 MB

     Dynamical RAM for     wfc (w. buffer):       3.92 MB

     Dynamical RAM for           str. fact:       0.20 MB

     Dynamical RAM for           local pot:       0.00 MB

     Dynamical RAM for          nlocal pot:       1.57 MB

     Dynamical RAM for                qrad:       0.20 MB

     Dynamical RAM for          rho,v,vnew:       6.63 MB

     Dynamical RAM for           G-vectors:       0.84 MB

     Dynamical RAM for          h,s,v(r/c):       4.69 MB

     Dynamical RAM for          <psi|beta>:       0.16 MB

     Dynamical RAM for                 psi:      15.69 MB

     Dynamical RAM for                hpsi:      15.69 MB

     Dynamical RAM for      wfcinit/wfcrot:       9.79 MB

     Estimated static dynamical RAM per process >      16.59 MB

     Estimated max dynamical RAM per process >      52.82 MB

     Estimated total dynamical RAM >     105.64 MB

     The potential is recalculated from file :
     ./tmp/SC_Trev.save/charge-density.dat

     Starting wfcs are  128 randomized atomic wfcs

     Band Structure Calculation
     Davidson diagonalization with overlap

     Computing kpt #:     1
     total cpu time spent up to now is       12.5 secs

     Computing kpt #:     2
     total cpu time spent up to now is       23.6 secs

     Computing kpt #:     3
     total cpu time spent up to now is       35.3 secs

     Computing kpt #:     4
     total cpu time spent up to now is       46.6 secs

     Computing kpt #:     5
     total cpu time spent up to now is       57.9 secs

     Computing kpt #:     6
     total cpu time spent up to now is       69.3 secs

     Computing kpt #:     7
     total cpu time spent up to now is       80.6 secs

     Computing kpt #:     8
     total cpu time spent up to now is       92.3 secs

     Computing kpt #:     9
     total cpu time spent up to now is      104.2 secs

     Computing kpt #:    10
     total cpu time spent up to now is      116.6 secs

     Computing kpt #:    11
     total cpu time spent up to now is      129.7 secs

     Computing kpt #:    12
     total cpu time spent up to now is      140.7 secs

     Computing kpt #:    13
     total cpu time spent up to now is      150.4 secs

     Computing kpt #:    14
     total cpu time spent up to now is      160.0 secs

     Computing kpt #:    15
     total cpu time spent up to now is      169.4 secs

     Computing kpt #:    16
     total cpu time spent up to now is      179.0 secs

     Computing kpt #:    17
     total cpu time spent up to now is      190.1 secs

     Computing kpt #:    18
     total cpu time spent up to now is      200.4 secs

     Computing kpt #:    19
     total cpu time spent up to now is      211.2 secs

     Computing kpt #:    20
     total cpu time spent up to now is      221.5 secs

     Computing kpt #:    21
     total cpu time spent up to now is      233.1 secs

     Computing kpt #:    22
     total cpu time spent up to now is      246.5 secs

     Computing kpt #:    23
     total cpu time spent up to now is      257.9 secs

     Computing kpt #:    24
     total cpu time spent up to now is      269.8 secs

     Computing kpt #:    25
     total cpu time spent up to now is      281.7 secs

     Computing kpt #:    26
     total cpu time spent up to now is      293.4 secs

     Computing kpt #:    27
     total cpu time spent up to now is      305.2 secs

     Computing kpt #:    28
     total cpu time spent up to now is      316.4 secs

     Computing kpt #:    29
     total cpu time spent up to now is      328.3 secs

     Computing kpt #:    30
     total cpu time spent up to now is      339.5 secs

     Computing kpt #:    31
     total cpu time spent up to now is      350.1 secs

     Computing kpt #:    32
     total cpu time spent up to now is      362.8 secs

     Computing kpt #:    33
     total cpu time spent up to now is      375.5 secs

     Computing kpt #:    34
     total cpu time spent up to now is      387.4 secs

     Computing kpt #:    35
     total cpu time spent up to now is      400.9 secs

     Computing kpt #:    36
     total cpu time spent up to now is      416.4 secs

     Computing kpt #:    37
     total cpu time spent up to now is      429.2 secs

     Computing kpt #:    38
     total cpu time spent up to now is      442.6 secs

     Computing kpt #:    39
     total cpu time spent up to now is      456.8 secs

     Computing kpt #:    40
     total cpu time spent up to now is      470.2 secs

     Computing kpt #:    41
     total cpu time spent up to now is      485.6 secs

     Computing kpt #:    42
     total cpu time spent up to now is      499.3 secs

     Computing kpt #:    43
     total cpu time spent up to now is      513.9 secs

     Computing kpt #:    44
     total cpu time spent up to now is      526.6 secs

     Computing kpt #:    45
     total cpu time spent up to now is      540.3 secs

     Computing kpt #:    46
     total cpu time spent up to now is      556.0 secs

     Computing kpt #:    47
     total cpu time spent up to now is      572.2 secs

     Computing kpt #:    48
     total cpu time spent up to now is      586.2 secs

     Computing kpt #:    49
     total cpu time spent up to now is      605.6 secs

     Computing kpt #:    50
     total cpu time spent up to now is      621.7 secs

     Computing kpt #:    51
     total cpu time spent up to now is      637.5 secs

     Computing kpt #:    52
     c_bands:  2 eigenvalues not converged
     total cpu time spent up to now is      664.3 secs

     Computing kpt #:    53
     total cpu time spent up to now is      678.4 secs

     Computing kpt #:    54
     total cpu time spent up to now is      690.7 secs

     Computing kpt #:    55
     total cpu time spent up to now is      702.0 secs

     Computing kpt #:    56
     total cpu time spent up to now is      713.1 secs

     Computing kpt #:    57
     total cpu time spent up to now is      724.3 secs

     Computing kpt #:    58
     total cpu time spent up to now is      735.4 secs

     Computing kpt #:    59
     total cpu time spent up to now is      747.1 secs

     Computing kpt #:    60
     total cpu time spent up to now is      759.6 secs

     Computing kpt #:    61
     total cpu time spent up to now is      773.2 secs

     Computing kpt #:    62
     total cpu time spent up to now is      795.2 secs

     Computing kpt #:    63
     total cpu time spent up to now is      807.4 secs

     Computing kpt #:    64
     total cpu time spent up to now is      818.9 secs

     Computing kpt #:    65
     total cpu time spent up to now is      830.6 secs

     Computing kpt #:    66
     total cpu time spent up to now is      842.8 secs

     Computing kpt #:    67
     total cpu time spent up to now is      854.1 secs

     Computing kpt #:    68
     total cpu time spent up to now is      865.4 secs

     Computing kpt #:    69
     total cpu time spent up to now is      876.8 secs

     Computing kpt #:    70
     total cpu time spent up to now is      888.0 secs

     Computing kpt #:    71
     total cpu time spent up to now is      899.4 secs

     ethr =  1.56E-11,  avg # of iterations = 31.6

     total cpu time spent up to now is      899.4 secs

     End of band structure calculation

          k = 0.0000 0.0000 0.0000 (  3215 PWs)   bands (ev):

    -5.8271  -5.8271  -3.4443  -3.4443  -3.4443  -3.4443  -3.4443  -3.4443
    -3.4443  -3.4443  -1.6236  -1.6236  -1.6236  -1.6236  -1.6236  -1.6236
    -1.6236  -1.6236  -1.6236  -1.6236  -1.6236  -1.6236  -0.8425  -0.8425
    -0.8425  -0.8425  -0.8425  -0.8425  -0.8425  -0.8425   3.3093   3.3093
     3.3093   3.3093   3.3093   3.3093   3.3093   3.3093   3.3093   3.3093
     3.3093   3.3093   4.9964   4.9964   4.9964   4.9964   4.9964   4.9964
     4.9964   4.9964   4.9964   4.9964   4.9964   4.9964   4.9964   4.9964
     4.9964   4.9964   6.2154   6.2154   6.2154   6.2154   6.2154   6.2154
     6.8558   6.8558   6.8558   6.8558   6.8558   6.8558   6.8558   6.8558
     6.8558   6.8558   6.8558   6.8558   7.7700   7.7700   7.7700   7.7700

          k = 0.0333-0.0333-0.0333 (  3203 PWs)   bands (ev):

    -5.8234  -5.8234  -3.4593  -3.4593  -3.4416  -3.4416  -3.4415  -3.4415
    -3.4415  -3.4415  -1.7533  -1.7533  -1.7533  -1.7533  -1.7533  -1.7533
    -1.4917  -1.4917  -1.4917  -1.4917  -1.4917  -1.4917  -0.8379  -0.8379
    -0.8379  -0.8379  -0.8379  -0.8379  -0.8187  -0.8187   3.2925   3.2925
     3.2925   3.2925   3.2925   3.2925   3.3123   3.3123   3.3123   3.3123
     3.3123   3.3123   4.9677   4.9677   4.9677   4.9677   4.9677   4.9677
     4.9895   4.9895   4.9895   4.9895   4.9895   4.9895   4.9994   4.9994
     4.9994   4.9994   6.1714   6.1714   6.2088   6.2088   6.2088   6.2088
     6.8385   6.8385   6.8385   6.8385   6.8385   6.8385   6.9021   6.9021
     6.9021   6.9021   6.9022   6.9022   7.7723   7.7723   7.7992   7.7992

          k = 0.0667-0.0667-0.0667 (  3215 PWs)   bands (ev):

    -5.8123  -5.8123  -3.5077  -3.5077  -3.4374  -3.4374  -3.4373  -3.4373
    -3.4373  -3.4373  -1.8792  -1.8792  -1.8792  -1.8792  -1.8792  -1.8792
    -1.3571  -1.3571  -1.3571  -1.3571  -1.3571  -1.3571  -0.8244  -0.8244
    -0.8244  -0.8244  -0.8244  -0.8244  -0.7494  -0.7494   3.2449   3.2449
     3.2449   3.2449   3.2449   3.2449   3.3214   3.3214   3.3214   3.3214
     3.3214   3.3214   4.8836   4.8836   4.8836   4.8836   4.8836   4.8836
     4.9662   4.9662   4.9662   4.9662   4.9662   4.9662   5.0054   5.0054
     5.0054   5.0054   6.0467   6.0467   6.1896   6.1896   6.1896   6.1896
     6.8409   6.8409   6.8409   6.8409   6.8409   6.8409   6.9901   6.9901
     6.9901   6.9901   6.9901   6.9901   7.7791   7.7791   7.8816   7.8816

          k = 0.1000-0.1000-0.1000 (  3215 PWs)   bands (ev):

    -5.7939  -5.7939  -3.5830  -3.5830  -3.4303  -3.4303  -3.4303  -3.4303
    -3.4303  -3.4303  -2.0006  -2.0006  -2.0006  -2.0006  -2.0006  -2.0006
    -1.2208  -1.2208  -1.2208  -1.2208  -1.2208  -1.2208  -0.8021  -0.8021
    -0.8021  -0.8021  -0.8021  -0.8021  -0.6394  -0.6394   3.1712   3.1712
     3.1712   3.1712   3.1712   3.1712   3.3369   3.3369   3.3369   3.3369
     3.3369   3.3369   4.7547   4.7547   4.7547   4.7547   4.7547   4.7547
     4.9284   4.9284   4.9284   4.9284   4.9284   4.9284   5.0155   5.0155
     5.0155   5.0155   5.8585   5.8585   6.1592   6.1592   6.1592   6.1592
     6.8571   6.8571   6.8571   6.8571   6.8571   6.8571   7.1212   7.1212
     7.1212   7.1212   7.1212   7.1212   7.7904   7.7904   8.0030   8.0030

          k = 0.1333-0.1333-0.1333 (  3215 PWs)   bands (ev):

    -5.7680  -5.7680  -3.6793  -3.6793  -3.4198  -3.4198  -3.4198  -3.4198
    -3.4198  -3.4198  -2.1175  -2.1175  -2.1175  -2.1175  -2.1175  -2.1175
    -1.0839  -1.0839  -1.0839  -1.0839  -1.0839  -1.0839  -0.7713  -0.7713
    -0.7713  -0.7713  -0.7713  -0.7713  -0.4946  -0.4946   3.0776   3.0776
     3.0776   3.0776   3.0776   3.0776   3.3586   3.3586   3.3586   3.3586
     3.3586   3.3586   4.5932   4.5932   4.5932   4.5932   4.5932   4.5932
     4.8776   4.8776   4.8776   4.8776   4.8776   4.8776   5.0297   5.0297
     5.0297   5.0297   5.6229   5.6229   6.1181   6.1181   6.1181   6.1181
     6.8836   6.8836   6.8836   6.8836   6.8836   6.8836   7.2924   7.2924
     7.2924   7.2924   7.2924   7.2924   7.8063   7.8063   8.1433   8.1433

          k = 0.1667-0.1667-0.1667 (  3224 PWs)   bands (ev):

    -5.7346  -5.7346  -3.7908  -3.7908  -3.4066  -3.4066  -3.4066  -3.4066
    -3.4066  -3.4066  -2.2297  -2.2297  -2.2297  -2.2297  -2.2297  -2.2297
    -0.9479  -0.9479  -0.9479  -0.9479  -0.9479  -0.9479  -0.7326  -0.7326
    -0.7326  -0.7326  -0.7326  -0.7326  -0.3214  -0.3214   2.9721   2.9721
     2.9721   2.9721   2.9721   2.9721   3.3859   3.3859   3.3859   3.3859
     3.3859   3.3859   4.4093   4.4093   4.4093   4.4093   4.4093   4.4093
     4.8156   4.8156   4.8156   4.8156   4.8156   4.8156   5.0478   5.0478
     5.0478   5.0478   5.3556   5.3556   6.0693   6.0693   6.0693   6.0693
     6.9186   6.9186   6.9186   6.9186   6.9186   6.9186   7.4989   7.4989
     7.4989   7.4989   7.4989   7.4989   7.8243   7.8243   8.2760   8.2760

          k = 0.2000-0.2000-0.2000 (  3215 PWs)   bands (ev):

    -5.6937  -5.6937  -3.9120  -3.9120  -3.3900  -3.3900  -3.3900  -3.3900
    -3.3900  -3.3900  -2.3367  -2.3367  -2.3367  -2.3367  -2.3367  -2.3367
    -0.8142  -0.8142  -0.8142  -0.8142  -0.8142  -0.8142  -0.6867  -0.6867
    -0.6867  -0.6867  -0.6867  -0.6867  -0.1241  -0.1241   2.8614   2.8614
     2.8614   2.8614   2.8614   2.8614   3.4196   3.4196   3.4196   3.4196
     3.4196   3.4196   4.2116   4.2116   4.2116   4.2116   4.2116   4.2116
     4.7449   4.7449   4.7449   4.7449   4.7449   4.7449   5.0682   5.0682
     5.0699   5.0699   5.0699   5.0699   6.0134   6.0134   6.0134   6.0134
     6.9623   6.9623   6.9623   6.9623   6.9623   6.9623   7.7351   7.7351
     7.7351   7.7351   7.7351   7.7351   7.8472   7.8472   8.3711   8.3711

          k = 0.2333-0.2333-0.2333 (  3227 PWs)   bands (ev):

    -5.6460  -5.6460  -4.0390  -4.0390  -3.3701  -3.3701  -3.3701  -3.3701
    -3.3701  -3.3701  -2.4389  -2.4389  -2.4389  -2.4389  -2.4389  -2.4389
    -0.6854  -0.6854  -0.6854  -0.6854  -0.6854  -0.6854  -0.6344  -0.6344
    -0.6344  -0.6344  -0.6344  -0.6344   0.0926   0.0926   2.7524   2.7524
     2.7524   2.7524   2.7524   2.7524   3.4591   3.4591   3.4591   3.4591
     3.4591   3.4591   4.0068   4.0068   4.0068   4.0068   4.0068   4.0068
     4.6666   4.6666   4.6666   4.6666   4.6666   4.6666   4.7660   4.7660
     5.0960   5.0960   5.0960   5.0960   5.9527   5.9527   5.9527   5.9527
     7.0142   7.0142   7.0142   7.0142   7.0142   7.0142   7.8762   7.8762
     7.9948   7.9948   7.9948   7.9948   7.9948   7.9948   8.4065   8.4065

          k = 0.2667-0.2667-0.2667 (  3221 PWs)   bands (ev):

    -5.5906  -5.5906  -4.1688  -4.1688  -3.3465  -3.3465  -3.3464  -3.3464
    -3.3464  -3.3464  -2.5356  -2.5356  -2.5356  -2.5356  -2.5356  -2.5356
    -0.5768  -0.5768  -0.5768  -0.5768  -0.5768  -0.5768  -0.5641  -0.5641
    -0.5641  -0.5641  -0.5641  -0.5641   0.3256   0.3256   2.6515   2.6515
     2.6515   2.6515   2.6515   2.6515   3.5045   3.5045   3.5045   3.5045
     3.5045   3.5045   3.7999   3.7999   3.7999   3.7999   3.7999   3.7999
     4.4554   4.4554   4.5829   4.5829   4.5829   4.5829   4.5829   4.5829
     5.1262   5.1262   5.1262   5.1262   5.8895   5.8895   5.8895   5.8895
     7.0737   7.0737   7.0737   7.0737   7.0737   7.0737   7.9096   7.9096
     8.2772   8.2772   8.2772   8.2772   8.2773   8.2773   8.3833   8.3833

          k = 0.3000-0.3000-0.3000 (  3218 PWs)   bands (ev):

    -5.5292  -5.5292  -4.2989  -4.2989  -3.3190  -3.3190  -3.3190  -3.3190
    -3.3190  -3.3190  -2.6269  -2.6269  -2.6269  -2.6269  -2.6269  -2.6269
    -0.5153  -0.5153  -0.5153  -0.5153  -0.5153  -0.5153  -0.4536  -0.4536
    -0.4536  -0.4536  -0.4536  -0.4536   0.5726   0.5726   2.5650   2.5650
     2.5650   2.5650   2.5650   2.5650   3.5557   3.5557   3.5557   3.5557
     3.5557   3.5557   3.5951   3.5951   3.5951   3.5951   3.5951   3.5951
     4.1397   4.1397   4.4957   4.4957   4.4957   4.4957   4.4957   4.4957
     5.1605   5.1605   5.1605   5.1605   5.8236   5.8236   5.8236   5.8236
     7.1408   7.1408   7.1408   7.1408   7.1408   7.1408   7.9480   7.9480
     8.3186   8.3186   8.3186   8.3186   8.3186   8.3186   8.5785   8.5785

          k = 0.3333-0.3333-0.3333 (  3239 PWs)   bands (ev):

    -5.4603  -5.4603  -4.4278  -4.4278  -3.2878  -3.2878  -3.2878  -3.2878
    -3.2878  -3.2878  -2.7133  -2.7133  -2.7132  -2.7132  -2.7132  -2.7132
    -0.4518  -0.4518  -0.4518  -0.4518  -0.4518  -0.4518  -0.3579  -0.3579
    -0.3579  -0.3579  -0.3579  -0.3579   0.8313   0.8313   2.4981   2.4981
     2.4981   2.4981   2.4981   2.4981   3.3953   3.3953   3.3953   3.3953
     3.3953   3.3953   3.6119   3.6119   3.6119   3.6119   3.6119   3.6119
     3.8221   3.8221   4.4063   4.4063   4.4063   4.4063   4.4063   4.4063
     5.1984   5.1984   5.1984   5.1984   5.7571   5.7571   5.7571   5.7571
     7.2151   7.2151   7.2151   7.2151   7.2151   7.2151   7.9897   7.9897
     8.2287   8.2287   8.2287   8.2287   8.2287   8.2287   8.5799   8.5799

          k = 0.3667-0.3667-0.3667 (  3212 PWs)   bands (ev):

    -5.3841  -5.3841  -4.5540  -4.5540  -3.2518  -3.2518  -3.2518  -3.2518
    -3.2518  -3.2518  -2.7935  -2.7935  -2.7935  -2.7935  -2.7935  -2.7935
    -0.3882  -0.3882  -0.3882  -0.3882  -0.3882  -0.3882  -0.2801  -0.2801
    -0.2801  -0.2801  -0.2801  -0.2801   1.1004   1.1004   2.4569   2.4569
     2.4569   2.4569   2.4569   2.4569   3.2054   3.2054   3.2055   3.2055
     3.2055   3.2055   3.5046   3.5046   3.6738   3.6738   3.6738   3.6738
     3.6738   3.6738   4.3162   4.3162   4.3162   4.3162   4.3162   4.3162
     5.2402   5.2402   5.2402   5.2402   5.6920   5.6920   5.6920   5.6920
     7.2966   7.2966   7.2966   7.2966   7.2966   7.2966   8.0355   8.0355
     8.1263   8.1263   8.1263   8.1263   8.1263   8.1263   8.5151   8.5151

          k = 0.4000-0.4000-0.4000 (  3220 PWs)   bands (ev):

    -5.3013  -5.3013  -4.6766  -4.6766  -3.2118  -3.2118  -3.2118  -3.2118
    -3.2118  -3.2118  -2.8688  -2.8688  -2.8688  -2.8688  -2.8688  -2.8688
    -0.3277  -0.3277  -0.3277  -0.3277  -0.3277  -0.3277  -0.2242  -0.2242
    -0.2242  -0.2242  -0.2242  -0.2242   1.3786   1.3786   2.4455   2.4455
     2.4455   2.4455   2.4455   2.4455   3.0278   3.0278   3.0278   3.0278
     3.0278   3.0278   3.1888   3.1888   3.7407   3.7407   3.7407   3.7407
     3.7407   3.7407   4.2264   4.2264   4.2264   4.2264   4.2264   4.2264
     5.2856   5.2856   5.2856   5.2856   5.6268   5.6268   5.6268   5.6268
     7.3843   7.3843   7.3843   7.3843   7.3843   7.3843   8.0160   8.0160
     8.0160   8.0160   8.0160   8.0160   8.0850   8.0850   8.4494   8.4494

          k = 0.4333-0.4333-0.4333 (  3220 PWs)   bands (ev):

    -5.2127  -5.2127  -4.7946  -4.7946  -3.1669  -3.1669  -3.1669  -3.1669
    -3.1669  -3.1669  -2.9389  -2.9389  -2.9389  -2.9389  -2.9389  -2.9389
    -0.2727  -0.2727  -0.2727  -0.2727  -0.2727  -0.2727  -0.1920  -0.1920
    -0.1920  -0.1920  -0.1920  -0.1920   1.6658   1.6658   2.4671   2.4671
     2.4671   2.4671   2.4671   2.4671   2.8666   2.8666   2.8666   2.8666
     2.8666   2.8666   2.8749   2.8749   3.8123   3.8123   3.8123   3.8123
     3.8123   3.8123   4.1380   4.1380   4.1380   4.1380   4.1380   4.1380
     5.3348   5.3348   5.3348   5.3348   5.5628   5.5628   5.5628   5.5628
     7.4786   7.4786   7.4786   7.4786   7.4786   7.4786   7.9042   7.9042
     7.9042   7.9042   7.9042   7.9042   8.1383   8.1383   8.3839   8.3839

          k = 0.4667-0.4667-0.4667 (  3202 PWs)   bands (ev):

    -5.1170  -5.1170  -4.9077  -4.9077  -3.1172  -3.1172  -3.1171  -3.1171
    -3.1171  -3.1171  -3.0032  -3.0032  -3.0032  -3.0032  -3.0032  -3.0032
    -0.2273  -0.2273  -0.2273  -0.2273  -0.2273  -0.2273  -0.1831  -0.1831
    -0.1831  -0.1831  -0.1831  -0.1831   1.9593   1.9593   2.5226   2.5226
     2.5226   2.5226   2.5226   2.5226   2.5649   2.5649   2.7259   2.7259
     2.7259   2.7259   2.7259   2.7259   3.8884   3.8884   3.8884   3.8884
     3.8884   3.8884   4.0517   4.0517   4.0517   4.0517   4.0517   4.0517
     5.3873   5.3873   5.3873   5.3873   5.5016   5.5016   5.5016   5.5016
     7.5787   7.5787   7.5787   7.5787   7.5787   7.5787   7.7929   7.7929
     7.7929   7.7929   7.7929   7.7929   8.1948   8.1948   8.3201   8.3201

          k =-0.5000 0.5000 0.5000 (  3214 PWs)   bands (ev):

    -5.0154  -5.0154  -5.0154  -5.0154  -3.0629  -3.0629  -3.0629  -3.0629
    -3.0629  -3.0629  -3.0629  -3.0629  -3.0629  -3.0629  -3.0629  -3.0629
    -0.1961  -0.1961  -0.1961  -0.1961  -0.1961  -0.1961  -0.1961  -0.1961
    -0.1961  -0.1961  -0.1961  -0.1961   2.2591   2.2591   2.2591   2.2591
     2.6097   2.6097   2.6098   2.6098   2.6098   2.6098   2.6098   2.6098
     2.6098   2.6098   2.6098   2.6098   3.9683   3.9683   3.9683   3.9683
     3.9683   3.9683   3.9683   3.9683   3.9683   3.9683   3.9683   3.9683
     5.4429   5.4429   5.4429   5.4429   5.4429   5.4429   5.4429   5.4429
     7.6836   7.6836   7.6836   7.6836   7.6836   7.6836   7.6836   7.6836
     7.6836   7.6836   7.6836   7.6836   8.2542   8.2542   8.2542   8.2542

          k =-0.0667 0.0000 0.0000 (  3199 PWs)   bands (ev):

    -5.8222  -5.8222  -3.4468  -3.4468  -3.4468  -3.4468  -3.4468  -3.4468
    -3.4468  -3.4468  -1.8830  -1.8830  -1.6224  -1.6224  -1.6224  -1.6224
    -1.6224  -1.6224  -1.6224  -1.6224  -1.3593  -1.3593  -0.8299  -0.8299
    -0.8299  -0.8299  -0.8299  -0.8299  -0.8299  -0.8299   3.2934   3.2934
     3.2934   3.2934   3.2934   3.2934   3.2934   3.2934   3.3136   3.3136
     3.3136   3.3136   4.9631   4.9631   4.9631   4.9631   4.9631   4.9631
     4.9631   4.9631   4.9958   4.9958   4.9958   4.9958   4.9958   4.9958
     4.9958   4.9958   6.1827   6.1827   6.1936   6.1936   6.1936   6.1936
     6.8019   6.8019   6.8820   6.8820   6.8820   6.8820   6.8820   6.8820
     6.8820   6.8820   6.9220   6.9220   7.8000   7.8000   7.8000   7.8000

          k =-0.1333 0.0000 0.0000 (  3203 PWs)   bands (ev):

    -5.8074  -5.8074  -3.4591  -3.4591  -3.4591  -3.4591  -3.4591  -3.4591
    -3.4591  -3.4591  -2.1353  -2.1353  -1.6174  -1.6174  -1.6174  -1.6174
    -1.6174  -1.6174  -1.6174  -1.6174  -1.0895  -1.0895  -0.7930  -0.7930
    -0.7930  -0.7930  -0.7930  -0.7930  -0.7930  -0.7930   3.2483   3.2483
     3.2483   3.2483   3.2483   3.2483   3.2483   3.2483   3.3271   3.3271
     3.3271   3.3271   4.8649   4.8649   4.8649   4.8649   4.8649   4.8649
     4.8649   4.8649   4.9912   4.9912   4.9912   4.9912   4.9912   4.9912
     4.9912   4.9912   6.0884   6.0884   6.1312   6.1312   6.1312   6.1312
     6.7622   6.7622   6.9635   6.9635   6.9635   6.9635   6.9635   6.9635
     6.9635   6.9635   7.0018   7.0018   7.8842   7.8842   7.8842   7.8842

          k =-0.2000 0.0000 0.0000 (  3219 PWs)   bands (ev):

    -5.7828  -5.7828  -3.4785  -3.4785  -3.4785  -3.4785  -3.4785  -3.4785
    -3.4785  -3.4785  -2.3818  -2.3818  -1.6092  -1.6092  -1.6092  -1.6092
    -1.6092  -1.6092  -1.6092  -1.6092  -0.8156  -0.8156  -0.7326  -0.7326
    -0.7326  -0.7326  -0.7326  -0.7326  -0.7326  -0.7326   3.1781   3.1781
     3.1781   3.1781   3.1781   3.1781   3.1781   3.1781   3.3489   3.3489
     3.3489   3.3489   4.7146   4.7146   4.7146   4.7146   4.7146   4.7146
     4.7146   4.7146   4.9838   4.9838   4.9838   4.9838   4.9838   4.9838
     4.9838   4.9838   5.9422   5.9422   6.0353   6.0353   6.0353   6.0353
     6.7320   6.7320   7.0937   7.0937   7.0945   7.0945   7.0945   7.0945
     7.0945   7.0945   7.0945   7.0945   8.0088   8.0088   8.0088   8.0088

          k =-0.2667 0.0000 0.0000 (  3219 PWs)   bands (ev):

    -5.7479  -5.7479  -3.5036  -3.5036  -3.5036  -3.5036  -3.5036  -3.5036
    -3.5036  -3.5036  -2.6208  -2.6208  -1.5984  -1.5984  -1.5984  -1.5984
    -1.5984  -1.5984  -1.5984  -1.5984  -0.6506  -0.6506  -0.6506  -0.6506
    -0.6506  -0.6506  -0.6506  -0.6506  -0.5361  -0.5361   3.0894   3.0894
     3.0894   3.0894   3.0894   3.0894   3.0894   3.0894   3.3801   3.3801
     3.3801   3.3801   4.5259   4.5259   4.5259   4.5259   4.5259   4.5259
     4.5259   4.5259   4.9739   4.9739   4.9739   4.9739   4.9739   4.9739
     4.9739   4.9739   5.7545   5.7545   5.9147   5.9147   5.9147   5.9147
     6.7176   6.7176   7.2013   7.2013   7.2690   7.2690   7.2690   7.2690
     7.2690   7.2690   7.2690   7.2690   8.1557   8.1557   8.1557   8.1557

          k =-0.3333 0.0000 0.0000 (  3223 PWs)   bands (ev):

    -5.7036  -5.7036  -3.5327  -3.5327  -3.5327  -3.5327  -3.5327  -3.5327
    -3.5327  -3.5327  -2.8527  -2.8527  -1.5843  -1.5843  -1.5843  -1.5843
    -1.5843  -1.5843  -1.5843  -1.5843  -0.5489  -0.5489  -0.5489  -0.5489
    -0.5489  -0.5489  -0.5489  -0.5489  -0.2523  -0.2523   2.9884   2.9884
     2.9884   2.9884   2.9884   2.9884   2.9884   2.9884   3.4202   3.4202
     3.4202   3.4202   4.3104   4.3104   4.3104   4.3104   4.3104   4.3104
     4.3104   4.3104   4.9621   4.9621   4.9621   4.9621   4.9622   4.9622
     4.9622   4.9622   5.5353   5.5353   5.7758   5.7758   5.7758   5.7758
     6.7154   6.7154   7.3233   7.3233   7.4813   7.4813   7.4813   7.4813
     7.4813   7.4813   7.4813   7.4813   8.3056   8.3056   8.3056   8.3056

          k =-0.4000 0.0000 0.0000 (  3207 PWs)   bands (ev):

    -5.6490  -5.6490  -3.5642  -3.5642  -3.5642  -3.5642  -3.5642  -3.5642
    -3.5642  -3.5642  -3.0771  -3.0771  -1.5679  -1.5679  -1.5679  -1.5679
    -1.5679  -1.5679  -1.5679  -1.5679  -0.4301  -0.4301  -0.4301  -0.4301
    -0.4301  -0.4301  -0.4301  -0.4301   0.0353   0.0353   2.8812   2.8812
     2.8812   2.8812   2.8812   2.8812   2.8812   2.8812   3.4692   3.4692
     3.4692   3.4692   4.0786   4.0786   4.0786   4.0786   4.0786   4.0786
     4.0786   4.0786   4.9493   4.9493   4.9493   4.9493   4.9493   4.9493
     4.9493   4.9493   5.2934   5.2934   5.6271   5.6271   5.6271   5.6271
     6.7252   6.7252   7.4597   7.4597   7.7252   7.7252   7.7252   7.7252
     7.7252   7.7252   7.7252   7.7252   8.3842   8.3842   8.4392   8.4392

          k =-0.4667 0.0000 0.0000 (  3207 PWs)   bands (ev):

    -5.5852  -5.5852  -3.5964  -3.5964  -3.5964  -3.5964  -3.5964  -3.5964
    -3.5964  -3.5964  -3.2939  -3.2939  -1.5506  -1.5506  -1.5506  -1.5506
    -1.5506  -1.5506  -1.5506  -1.5506  -0.2964  -0.2964  -0.2964  -0.2964
    -0.2964  -0.2964  -0.2964  -0.2964   0.3262   0.3262   2.7729   2.7729
     2.7729   2.7729   2.7729   2.7729   2.7729   2.7729   3.5268   3.5268
     3.5268   3.5268   3.8376   3.8376   3.8376   3.8376   3.8376   3.8376
     3.8376   3.8376   4.9355   4.9355   4.9355   4.9355   4.9355   4.9355
     4.9355   4.9355   5.0351   5.0351   5.4711   5.4711   5.4711   5.4711
     6.7466   6.7466   7.6106   7.6106   7.9947   7.9947   7.9947   7.9947
     7.9947   7.9947   7.9947   7.9947   8.2660   8.2660   8.5426   8.5426

          k =-0.5333 0.0000 0.0000 (  3207 PWs)   bands (ev):

    -5.5117  -5.5117  -3.6279  -3.6279  -3.6279  -3.6279  -3.6279  -3.6279
    -3.6279  -3.6279  -3.5029  -3.5029  -1.5321  -1.5321  -1.5321  -1.5321
    -1.5321  -1.5321  -1.5321  -1.5321  -0.1507  -0.1507  -0.1507  -0.1507
    -0.1507  -0.1507  -0.1507  -0.1507   0.6200   0.6200   2.6680   2.6680
     2.6680   2.6680   2.6680   2.6680   2.6680   2.6680   3.5928   3.5928
     3.5928   3.5928   3.5928   3.5928   3.5928   3.5928   3.5932   3.5932
     3.5932   3.5932   4.7648   4.7648   4.9216   4.9216   4.9216   4.9216
     4.9216   4.9216   4.9216   4.9216   5.3127   5.3127   5.3127   5.3127
     6.7793   6.7793   7.7761   7.7761   8.1421   8.1421   8.2877   8.2877
     8.2877   8.2877   8.2877   8.2877   8.2877   8.2877   8.6096   8.6097

          k =-0.6000 0.0000 0.0000 (  3222 PWs)   bands (ev):

    -5.4292  -5.4292  -3.7038  -3.7038  -3.6579  -3.6579  -3.6579  -3.6579
    -3.6579  -3.6579  -3.6579  -3.6579  -1.5132  -1.5132  -1.5131  -1.5131
    -1.5131  -1.5131  -1.5131  -1.5131   0.0034   0.0034   0.0034   0.0034
     0.0034   0.0034   0.0034   0.0034   0.9162   0.9162   2.5706   2.5706
     2.5706   2.5706   2.5706   2.5706   2.5706   2.5706   3.3495   3.3495
     3.3495   3.3495   3.3495   3.3495   3.3495   3.3495   3.6681   3.6681
     3.6681   3.6681   4.4854   4.4854   4.9080   4.9080   4.9080   4.9080
     4.9080   4.9080   4.9080   4.9080   5.1537   5.1537   5.1537   5.1537
     6.8239   6.8239   7.9562   7.9562   8.0133   8.0133   8.6011   8.6011
     8.6011   8.6011   8.6011   8.6011   8.6011   8.6011   8.6444   8.6444

          k =-0.6667 0.0000 0.0000 (  3230 PWs)   bands (ev):

    -5.3365  -5.3365  -3.8977  -3.8977  -3.6847  -3.6847  -3.6846  -3.6846
    -3.6846  -3.6846  -3.6846  -3.6846  -1.4953  -1.4953  -1.4953  -1.4953
    -1.4953  -1.4953  -1.4953  -1.4953   0.1628   0.1628   0.1628   0.1628
     0.1628   0.1628   0.1628   0.1628   1.2134   1.2134   2.4829   2.4829
     2.4829   2.4829   2.4829   2.4829   2.4829   2.4829   3.1139   3.1139
     3.1139   3.1139   3.1139   3.1139   3.1139   3.1139   3.7504   3.7504
     3.7504   3.7504   4.1999   4.1999   4.8957   4.8957   4.8957   4.8957
     4.8957   4.8957   4.8957   4.8957   4.9975   4.9975   4.9975   4.9975
     6.8772   6.8772   7.8854   7.8854   8.1459   8.1459   8.6590   8.6590
     8.6590   8.6590   8.6590   8.6590   8.6590   8.6590   8.9292   8.9292

          k =-0.7333 0.0000 0.0000 (  3214 PWs)   bands (ev):

    -5.2341  -5.2341  -4.0815  -4.0815  -3.7072  -3.7072  -3.7072  -3.7072
    -3.7072  -3.7072  -3.7072  -3.7072  -1.4794  -1.4794  -1.4794  -1.4794
    -1.4794  -1.4794  -1.4794  -1.4794   0.3213   0.3213   0.3213   0.3213
     0.3213   0.3213   0.3213   0.3213   1.5149   1.5149   2.4077   2.4077
     2.4077   2.4077   2.4077   2.4077   2.4077   2.4077   2.8920   2.8920
     2.8920   2.8920   2.8920   2.8920   2.8920   2.8920   3.8423   3.8423
     3.8423   3.8423   3.9094   3.9094   4.8447   4.8447   4.8447   4.8447
     4.8851   4.8851   4.8851   4.8851   4.8851   4.8851   4.8851   4.8851
     6.9435   6.9435   7.7588   7.7588   8.3546   8.3546   8.6612   8.6612
     8.6612   8.6612   8.6612   8.6612   8.6612   8.6612   9.2698   9.2698

          k =-0.8000 0.0000 0.0000 (  3218 PWs)   bands (ev):

    -5.1223  -5.1223  -4.2570  -4.2570  -3.7257  -3.7257  -3.7257  -3.7257
    -3.7257  -3.7257  -3.7257  -3.7257  -1.4661  -1.4661  -1.4661  -1.4661
    -1.4661  -1.4661  -1.4661  -1.4661   0.4707   0.4707   0.4707   0.4707
     0.4707   0.4707   0.4707   0.4707   1.8156   1.8156   2.3470   2.3470
     2.3470   2.3470   2.3470   2.3470   2.3470   2.3470   2.6926   2.6926
     2.6926   2.6926   2.6926   2.6926   2.6926   2.6926   3.6154   3.6154
     3.9421   3.9421   3.9421   3.9421   4.6966   4.6966   4.6966   4.6966
     4.8762   4.8762   4.8762   4.8762   4.8763   4.8763   4.8763   4.8763
     7.0175   7.0175   7.6351   7.6351   8.5761   8.5761   8.6572   8.6572
     8.6572   8.6572   8.6572   8.6572   8.6572   8.6572   9.6172   9.6172

          k =-0.8667 0.0000 0.0000 (  3242 PWs)   bands (ev):

    -5.0018  -5.0018  -4.4239  -4.4239  -3.7394  -3.7394  -3.7394  -3.7394
    -3.7394  -3.7394  -3.7394  -3.7394  -1.4559  -1.4559  -1.4559  -1.4559
    -1.4559  -1.4559  -1.4559  -1.4559   0.5989   0.5989   0.5990   0.5990
     0.5990   0.5990   0.5990   0.5990   2.1168   2.1168   2.3026   2.3026
     2.3026   2.3026   2.3026   2.3026   2.3026   2.3026   2.5280   2.5280
     2.5280   2.5280   2.5280   2.5280   2.5280   2.5280   3.3183   3.3183
     4.0498   4.0498   4.0498   4.0498   4.5538   4.5538   4.5538   4.5538
     4.8694   4.8694   4.8694   4.8694   4.8694   4.8694   4.8694   4.8694
     7.1008   7.1008   7.5156   7.5156   8.6517   8.6517   8.6517   8.6517
     8.6517   8.6517   8.6517   8.6517   8.8101   8.8101   9.8336   9.8336

          k =-0.9333 0.0000 0.0000 (  3250 PWs)   bands (ev):

    -4.8715  -4.8715  -4.5827  -4.5827  -3.7479  -3.7479  -3.7479  -3.7479
    -3.7479  -3.7479  -3.7479  -3.7479  -1.4489  -1.4489  -1.4489  -1.4489
    -1.4489  -1.4489  -1.4489  -1.4489   0.6890   0.6890   0.6890   0.6890
     0.6890   0.6890   0.6890   0.6890   2.2755   2.2755   2.2755   2.2755
     2.2755   2.2755   2.2755   2.2755   2.4164   2.4164   2.4164   2.4164
     2.4164   2.4164   2.4164   2.4164   2.4178   2.4178   3.0188   3.0188
     4.1645   4.1645   4.1645   4.1645   4.4172   4.4172   4.4172   4.4172
     4.8651   4.8651   4.8651   4.8651   4.8651   4.8651   4.8651   4.8651
     7.1928   7.1928   7.4003   7.4003   8.6483   8.6483   8.6483   8.6483
     8.6483   8.6483   8.6483   8.6483   9.0550   9.0550   9.5702   9.5702

          k =-1.0000 0.0000 0.0000 (  3250 PWs)   bands (ev):

    -4.7317  -4.7317  -4.7317  -4.7317  -3.7506  -3.7506  -3.7506  -3.7506
    -3.7506  -3.7506  -3.7506  -3.7506  -1.4468  -1.4468  -1.4468  -1.4468
    -1.4468  -1.4468  -1.4468  -1.4468   0.7219   0.7219   0.7219   0.7219
     0.7219   0.7219   0.7219   0.7219   2.2664   2.2664   2.2664   2.2664
     2.2664   2.2664   2.2664   2.2664   2.3763   2.3763   2.3763   2.3763
     2.3763   2.3763   2.3763   2.3763   2.7187   2.7187   2.7187   2.7187
     4.2873   4.2873   4.2873   4.2873   4.2873   4.2873   4.2873   4.2873
     4.8638   4.8638   4.8638   4.8638   4.8638   4.8638   4.8638   4.8638
     7.2929   7.2929   7.2929   7.2929   8.6469   8.6469   8.6469   8.6469
     8.6469   8.6469   8.6469   8.6469   9.3095   9.3095   9.3095   9.3095

          k =-0.0000 0.0333 0.0333 (  3203 PWs)   bands (ev):

    -5.8247  -5.8247  -3.4500  -3.4500  -3.4500  -3.4500  -3.4403  -3.4403
    -3.4403  -3.4403  -1.7538  -1.7538  -1.7538  -1.7538  -1.6245  -1.6245
    -1.6215  -1.6215  -1.4920  -1.4920  -1.4920  -1.4920  -0.8410  -0.8410
    -0.8410  -0.8410  -0.8314  -0.8314  -0.8314  -0.8314   3.2914   3.2914
     3.3063   3.3063   3.3063   3.3063   3.3064   3.3064   3.3064   3.3064
     3.3113   3.3113   4.9737   4.9737   4.9737   4.9737   4.9918   4.9918
     4.9918   4.9918   4.9923   4.9923   4.9923   4.9923   4.9942   4.9942
     4.9943   4.9943   6.1892   6.1892   6.2044   6.2044   6.2143   6.2143
     6.8333   6.8333   6.8333   6.8333   6.8577   6.8577   6.8800   6.8800
     6.8940   6.8940   6.8940   6.8940   7.7783   7.7783   7.7784   7.7784

          k = 0.0000 0.0667 0.0667 (  3209 PWs)   bands (ev):

    -5.8173  -5.8173  -3.4689  -3.4689  -3.4689  -3.4689  -3.4330  -3.4330
    -3.4330  -3.4330  -1.8814  -1.8814  -1.8814  -1.8814  -1.6272  -1.6272
    -1.6135  -1.6135  -1.3586  -1.3586  -1.3586  -1.3586  -0.8368  -0.8368
    -0.8368  -0.8368  -0.7986  -0.7986  -0.7986  -0.7986   3.2404   3.2404
     3.2969   3.2969   3.2969   3.2969   3.2987   3.2987   3.2987   3.2987
     3.3172   3.3172   4.9053   4.9053   4.9053   4.9053   4.9770   4.9770
     4.9770   4.9770   4.9782   4.9782   4.9782   4.9782   4.9872   4.9872
     4.9872   4.9872   6.1137   6.1137   6.1719   6.1719   6.2111   6.2111
     6.8287   6.8287   6.8287   6.8287   6.8646   6.8646   6.9476   6.9476
     6.9476   6.9476   6.9549   6.9549   7.8030   7.8030   7.8030   7.8030

          k = 0.0000 0.1000 0.1000 (  3215 PWs)   bands (ev):

    -5.8049  -5.8049  -3.5004  -3.5004  -3.5004  -3.5004  -3.4208  -3.4208
    -3.4208  -3.4208  -2.0053  -2.0053  -2.0053  -2.0053  -1.6330  -1.6330
    -1.6009  -1.6009  -1.2233  -1.2233  -1.2233  -1.2233  -0.8298  -0.8298
    -0.8298  -0.8298  -0.7452  -0.7452  -0.7452  -0.7452   3.1602   3.1602
     3.2814   3.2814   3.2814   3.2814   3.2876   3.2876   3.2876   3.2876
     3.3267   3.3267   4.7986   4.7986   4.7986   4.7986   4.9523   4.9523
     4.9523   4.9523   4.9548   4.9548   4.9548   4.9548   4.9747   4.9747
     4.9747   4.9747   5.9968   5.9968   6.1189   6.1189   6.2057   6.2057
     6.8427   6.8427   6.8427   6.8427   6.8744   6.8744   7.0188   7.0188
     7.0188   7.0188   7.0742   7.0742   7.8430   7.8430   7.8430   7.8430

          k =-0.0000 0.1333 0.1333 (  3225 PWs)   bands (ev):

    -5.7877  -5.7877  -3.5423  -3.5423  -3.5423  -3.5423  -3.4036  -3.4036
    -3.4036  -3.4036  -2.1265  -2.1265  -2.1265  -2.1265  -1.6400  -1.6400
    -1.5830  -1.5830  -1.0871  -1.0871  -1.0871  -1.0871  -0.8202  -0.8202
    -0.8202  -0.8202  -0.6728  -0.6728  -0.6728  -0.6728   3.0573   3.0573
     3.2593   3.2593   3.2593   3.2593   3.2740   3.2740   3.2740   3.2740
     3.3406   3.3406   4.6622   4.6622   4.6622   4.6622   4.9193   4.9193
     4.9193   4.9193   4.9220   4.9220   4.9220   4.9220   4.9576   4.9576
     4.9576   4.9576   5.8465   5.8465   6.0469   6.0469   6.1980   6.1980
     6.8736   6.8736   6.8736   6.8736   6.8901   6.8901   7.1044   7.1044
     7.1044   7.1044   7.2336   7.2336   7.8969   7.8969   7.8969   7.8969

          k = 0.0000 0.1667 0.1667 (  3225 PWs)   bands (ev):

    -5.7656  -5.7656  -3.5928  -3.5928  -3.5928  -3.5928  -3.3816  -3.3816
    -3.3816  -3.3816  -2.2438  -2.2438  -2.2438  -2.2438  -1.6502  -1.6502
    -1.5593  -1.5593  -0.9503  -0.9503  -0.9503  -0.9503  -0.8080  -0.8080
    -0.8080  -0.8080  -0.5832  -0.5832  -0.5832  -0.5832   2.9374   2.9374
     3.2315   3.2315   3.2315   3.2315   3.2594   3.2594   3.2594   3.2594
     3.3585   3.3585   4.5040   4.5040   4.5040   4.5040   4.8792   4.8792
     4.8792   4.8792   4.8798   4.8798   4.8798   4.8798   4.9362   4.9362
     4.9362   4.9362   5.6720   5.6720   5.9587   5.9587   6.1884   6.1884
     6.9107   6.9107   6.9216   6.9216   6.9216   6.9216   7.2053   7.2053
     7.2053   7.2053   7.4254   7.4254   7.9625   7.9625   7.9625   7.9625

          k = 0.0000 0.2000 0.2000 (  3227 PWs)   bands (ev):

    -5.7384  -5.7384  -3.6501  -3.6501  -3.6501  -3.6501  -3.3548  -3.3548
    -3.3548  -3.3548  -2.3578  -2.3578  -2.3578  -2.3578  -1.6629  -1.6629
    -1.5303  -1.5303  -0.8141  -0.8141  -0.8141  -0.8141  -0.7936  -0.7936
    -0.7936  -0.7936  -0.4783  -0.4783  -0.4783  -0.4783   2.8075   2.8075
     3.1981   3.1981   3.1982   3.1982   3.2454   3.2454   3.2454   3.2454
     3.3803   3.3803   4.3304   4.3304   4.3304   4.3304   4.8284   4.8284
     4.8284   4.8284   4.8334   4.8334   4.8334   4.8334   4.9111   4.9111
     4.9111   4.9111   5.4802   5.4802   5.8563   5.8563   6.1760   6.1760
     6.9359   6.9359   6.9854   6.9854   6.9854   6.9854   7.3193   7.3193
     7.3193   7.3193   7.6455   7.6455   8.0371   8.0371   8.0372   8.0372

          k =-0.0000 0.2333 0.2333 (  3229 PWs)   bands (ev):

    -5.7061  -5.7061  -3.7126  -3.7126  -3.7126  -3.7126  -3.3230  -3.3230
    -3.3230  -3.3230  -2.4676  -2.4676  -2.4676  -2.4676  -1.6796  -1.6796
    -1.4966  -1.4966  -0.7770  -0.7770  -0.7770  -0.7770  -0.6787  -0.6787
    -0.6787  -0.6787  -0.3603  -0.3603  -0.3602  -0.3602   2.6724   2.6724
     3.1600   3.1600   3.1600   3.1600   3.2334   3.2334   3.2334   3.2334
     3.4050   3.4050   4.1480   4.1480   4.1480   4.1480   4.7680   4.7680
     4.7680   4.7680   4.7828   4.7828   4.7828   4.7828   4.8828   4.8828
     4.8828   4.8828   5.2767   5.2767   5.7399   5.7399   6.1608   6.1608
     6.9642   6.9642   7.0644   7.0644   7.0644   7.0644   7.4461   7.4461
     7.4461   7.4461   7.8883   7.8883   8.1158   8.1158   8.1158   8.1158

          k = 0.0000 0.2667 0.2667 (  3229 PWs)   bands (ev):

    -5.6693  -5.6693  -3.7784  -3.7784  -3.7784  -3.7784  -3.2864  -3.2864
    -3.2864  -3.2864  -2.5736  -2.5736  -2.5736  -2.5736  -1.7005  -1.7005
    -1.4570  -1.4570  -0.7586  -0.7586  -0.7586  -0.7586  -0.5453  -0.5453
    -0.5453  -0.5453  -0.2303  -0.2303  -0.2303  -0.2303   2.5365   2.5365
     3.1178   3.1178   3.1178   3.1178   3.2248   3.2248   3.2248   3.2248
     3.4344   3.4344   3.9599   3.9599   3.9599   3.9599   4.6989   4.6989
     4.6989   4.6989   4.7294   4.7294   4.7294   4.7294   4.8516   4.8516
     4.8516   4.8516   5.0649   5.0649   5.6123   5.6123   6.1426   6.1426
     6.9983   6.9983   7.1574   7.1574   7.1574   7.1574   7.5842   7.5842
     7.5842   7.5842   8.1503   8.1503   8.1985   8.1985   8.1985   8.1985

          k = 0.0000 0.3000 0.3000 (  3226 PWs)   bands (ev):

    -5.6270  -5.6270  -3.8465  -3.8465  -3.8465  -3.8465  -3.2451  -3.2451
    -3.2451  -3.2451  -2.6755  -2.6755  -2.6755  -2.6755  -1.7264  -1.7264
    -1.4122  -1.4122  -0.7389  -0.7389  -0.7389  -0.7389  -0.4145  -0.4145
    -0.4145  -0.4145  -0.0904  -0.0904  -0.0904  -0.0904   2.4038   2.4038
     3.0726   3.0726   3.0726   3.0726   3.2216   3.2216   3.2216   3.2216
     3.4677   3.4677   3.7695   3.7695   3.7695   3.7695   4.6212   4.6212
     4.6212   4.6212   4.6738   4.6738   4.6738   4.6738   4.8180   4.8180
     4.8180   4.8180   4.8485   4.8485   5.4759   5.4759   6.1231   6.1231
     7.0369   7.0369   7.2635   7.2635   7.2635   7.2635   7.7334   7.7334
     7.7334   7.7334   8.2776   8.2776   8.2776   8.2776   8.4290   8.4290

          k =-0.0000 0.3333 0.3333 (  3230 PWs)   bands (ev):

    -5.5810  -5.5810  -3.9154  -3.9154  -3.9154  -3.9154  -3.1991  -3.1991
    -3.1991  -3.1991  -2.7730  -2.7730  -2.7730  -2.7730  -1.7582  -1.7582
    -1.3622  -1.3622  -0.7183  -0.7183  -0.7183  -0.7183  -0.2872  -0.2872
    -0.2872  -0.2872   0.0583   0.0583   0.0583   0.0583   2.2768   2.2768
     3.0250   3.0250   3.0250   3.0250   3.2253   3.2253   3.2253   3.2253
     3.5047   3.5047   3.5794   3.5794   3.5794   3.5794   4.5354   4.5354
     4.5354   4.5354   4.6177   4.6177   4.6178   4.6178   4.6286   4.6286
     4.7828   4.7828   4.7828   4.7828   5.3317   5.3317   6.0986   6.0986
     7.0798   7.0798   7.3820   7.3820   7.3820   7.3820   7.8930   7.8930
     7.8930   7.8930   8.3496   8.3496   8.3496   8.3496   8.7205   8.7205

          k = 0.0000 0.3667 0.3667 (  3216 PWs)   bands (ev):

    -5.5299  -5.5299  -3.9843  -3.9843  -3.9843  -3.9843  -3.1478  -3.1478
    -3.1478  -3.1478  -2.8664  -2.8664  -2.8664  -2.8664  -1.7967  -1.7967
    -1.3051  -1.3051  -0.6973  -0.6973  -0.6973  -0.6973  -0.1653  -0.1653
    -0.1653  -0.1653   0.2145   0.2145   0.2145   0.2145   2.1584   2.1584
     2.9759   2.9759   2.9759   2.9759   3.2372   3.2372   3.2372   3.2372
     3.3921   3.3921   3.3921   3.3921   3.5455   3.5455   4.4076   4.4076
     4.4433   4.4433   4.4433   4.4433   4.5619   4.5619   4.5619   4.5619
     4.7464   4.7464   4.7465   4.7465   5.1819   5.1819   6.0706   6.0706
     7.1282   7.1282   7.5114   7.5114   7.5114   7.5114   8.0618   8.0618
     8.0618   8.0618   8.4077   8.4077   8.4077   8.4077   8.9114   8.9114

          k = 0.0000 0.4000 0.4000 (  3194 PWs)   bands (ev):

    -5.4740  -5.4740  -4.0523  -4.0523  -4.0523  -4.0523  -3.0924  -3.0924
    -3.0924  -3.0924  -2.9550  -2.9550  -2.9550  -2.9550  -1.8424  -1.8424
    -1.2446  -1.2446  -0.6767  -0.6767  -0.6767  -0.6767  -0.0487  -0.0487
    -0.0487  -0.0487   0.3771   0.3771   0.3772   0.3772   2.0504   2.0504
     2.9262   2.9262   2.9262   2.9262   3.2094   3.2094   3.2094   3.2094
     3.2591   3.2591   3.2591   3.2591   3.5898   3.5898   4.1866   4.1866
     4.3433   4.3433   4.3433   4.3433   4.5076   4.5076   4.5076   4.5076
     4.7101   4.7101   4.7101   4.7101   5.0277   5.0277   6.0398   6.0398
     7.1796   7.1796   7.6511   7.6511   7.6511   7.6511   8.2395   8.2395
     8.2395   8.2395   8.4473   8.4473   8.4473   8.4473   9.0086   9.0086

          k =-0.0000 0.4333 0.4333 (  3212 PWs)   bands (ev):

    -5.4136  -5.4136  -4.1189  -4.1189  -4.1189  -4.1189  -3.0400  -3.0400
    -3.0400  -3.0400  -3.0329  -3.0329  -3.0329  -3.0329  -1.8961  -1.8961
    -1.1789  -1.1789  -0.6574  -0.6574  -0.6574  -0.6574   0.0594   0.0594
     0.0594   0.0594   0.5448   0.5448   0.5448   0.5448   1.9548   1.9548
     2.8761   2.8761   2.8761   2.8761   3.0328   3.0328   3.0328   3.0328
     3.2915   3.2915   3.2915   3.2915   3.6377   3.6377   3.9664   3.9664
     4.2370   4.2370   4.2370   4.2370   4.4546   4.4546   4.4546   4.4546
     4.6727   4.6727   4.6728   4.6728   4.8704   4.8704   6.0041   6.0041
     7.2352   7.2352   7.7989   7.7989   7.7989   7.7989   8.4246   8.4246
     8.4246   8.4246   8.4652   8.4652   8.4652   8.4652   9.1030   9.1030

          k = 0.0000 0.4667 0.4667 (  3198 PWs)   bands (ev):

    -5.3484  -5.3484  -4.1833  -4.1833  -4.1833  -4.1833  -3.1201  -3.1201
    -3.1201  -3.1201  -2.9684  -2.9684  -2.9684  -2.9684  -1.9579  -1.9579
    -1.1075  -1.1075  -0.6403  -0.6403  -0.6403  -0.6403   0.1600   0.1600
     0.1600   0.1600   0.7168   0.7168   0.7168   0.7168   1.8732   1.8732
     2.8265   2.8265   2.8265   2.8265   2.8644   2.8644   2.8644   2.8644
     3.3363   3.3363   3.3363   3.3363   3.6890   3.6890   3.7478   3.7478
     4.1254   4.1254   4.1254   4.1254   4.4046   4.4046   4.4046   4.4046
     4.6356   4.6356   4.6356   4.6356   4.7105   4.7105   5.9648   5.9648
     7.2952   7.2952   7.9563   7.9563   7.9563   7.9563   8.4637   8.4637
     8.4637   8.4637   8.6179   8.6179   8.6179   8.6179   9.1961   9.1961

          k = 0.0000 0.5000 0.5000 (  3190 PWs)   bands (ev):

    -5.2786  -5.2786  -4.2455  -4.2455  -4.2455  -4.2455  -3.1961  -3.1961
    -3.1961  -3.1961  -2.8990  -2.8990  -2.8990  -2.8990  -2.0285  -2.0285
    -1.0314  -1.0314  -0.6263  -0.6263  -0.6263  -0.6263   0.2516   0.2516
     0.2516   0.2516   0.8914   0.8914   0.8914   0.8914   1.8057   1.8057
     2.7060   2.7060   2.7060   2.7060   2.7777   2.7777   2.7777   2.7777
     3.3932   3.3932   3.3932   3.3932   3.5314   3.5314   3.7437   3.7437
     4.0104   4.0104   4.0104   4.0104   4.3574   4.3574   4.3574   4.3574
     4.5492   4.5492   4.5990   4.5990   4.5990   4.5990   5.9214   5.9214
     7.3588   7.3588   8.1214   8.1214   8.1214   8.1214   8.4439   8.4439
     8.4439   8.4439   8.8164   8.8164   8.8164   8.8164   9.2899   9.2899

          k = 0.5000-0.5000 0.0000 (  3190 PWs)   bands (ev):

    -5.2786  -5.2786  -4.2455  -4.2455  -4.2455  -4.2455  -3.1961  -3.1961
    -3.1961  -3.1961  -2.8990  -2.8990  -2.8990  -2.8990  -2.0285  -2.0285
    -1.0314  -1.0314  -0.6263  -0.6263  -0.6263  -0.6263   0.2516   0.2516
     0.2516   0.2516   0.8914   0.8914   0.8914   0.8914   1.8057   1.8057
     2.7060   2.7060   2.7060   2.7060   2.7777   2.7777   2.7777   2.7777
     3.3932   3.3932   3.3932   3.3932   3.5314   3.5314   3.7437   3.7437
     4.0104   4.0104   4.0104   4.0104   4.3574   4.3574   4.3574   4.3574
     4.5492   4.5492   4.5990   4.5990   4.5990   4.5990   5.9214   5.9214
     7.3588   7.3588   8.1214   8.1214   8.1214   8.1214   8.4439   8.4439
     8.4439   8.4439   8.8164   8.8164   8.8164   8.8164   9.2899   9.2899

          k = 0.5500-0.5500 0.0000 (  3208 PWs)   bands (ev):

    -5.1655  -5.1655  -4.3334  -4.3334  -4.3334  -4.3334  -3.3005  -3.3005
    -3.3005  -3.3005  -2.7882  -2.7882  -2.7882  -2.7882  -2.1512  -2.1512
    -0.9079  -0.9079  -0.6150  -0.6150  -0.6150  -0.6150   0.3713   0.3713
     0.3713   0.3713   1.1564   1.1564   1.1564   1.1564   1.7326   1.7326
     2.4891   2.4891   2.4891   2.4891   2.7081   2.7081   2.7081   2.7081
     3.2117   3.2117   3.5045   3.5045   3.5046   3.5046   3.8289   3.8289
     3.8289   3.8289   3.8318   3.8318   4.2942   4.2942   4.2942   4.2942
     4.3065   4.3065   4.5458   4.5458   4.5458   4.5458   5.8487   5.8487
     7.4613   7.4613   8.3838   8.3838   8.3838   8.3838   8.3860   8.3860
     8.3860   8.3860   9.1300   9.1300   9.1300   9.1300   9.3058   9.3058

          k = 0.6000-0.6000 0.0000 (  3214 PWs)   bands (ev):

    -5.0424  -5.0424  -4.4143  -4.4143  -4.4143  -4.4143  -3.3944  -3.3944
    -3.3944  -3.3944  -2.6671  -2.6671  -2.6671  -2.6671  -2.2915  -2.2915
    -0.7723  -0.7723  -0.6189  -0.6189  -0.6189  -0.6189   0.4691   0.4691
     0.4691   0.4691   1.4213   1.4213   1.4213   1.4213   1.6940   1.6940
     2.3050   2.3050   2.3050   2.3050   2.6427   2.6427   2.6427   2.6427
     2.8994   2.8994   3.6422   3.6422   3.6422   3.6422   3.6446   3.6446
     3.6446   3.6446   3.9269   3.9269   4.0652   4.0652   4.2412   4.2412
     4.2412   4.2412   4.4958   4.4958   4.4958   4.4958   5.7667   5.7667
     7.5722   7.5722   8.2999   8.2999   8.2999   8.2999   8.6589   8.6589
     8.6589   8.6589   9.3065   9.3065   9.4149   9.4149   9.4149   9.4149

          k = 0.6500-0.6500 0.0000 (  3210 PWs)   bands (ev):

    -4.9099  -4.9099  -4.4866  -4.4866  -4.4866  -4.4866  -3.4775  -3.4775
    -3.4775  -3.4775  -2.5365  -2.5365  -2.5365  -2.5365  -2.4480  -2.4480
    -0.6430  -0.6430  -0.6430  -0.6430  -0.6252  -0.6252   0.5462   0.5462
     0.5462   0.5462   1.6803   1.6803   1.6803   1.6803   1.6885   1.6885
     2.1586   2.1586   2.1586   2.1586   2.5830   2.5830   2.5830   2.5830
     2.5934   2.5934   3.4526   3.4526   3.4526   3.4526   3.8102   3.8102
     3.8102   3.8102   3.8266   3.8266   4.0284   4.0284   4.2022   4.2022
     4.2022   4.2022   4.4498   4.4498   4.4498   4.4498   5.6759   5.6759
     7.6906   7.6906   8.1896   8.1896   8.1896   8.1896   8.9463   8.9463
     8.9463   8.9463   9.2896   9.2896   9.4975   9.4975   9.4975   9.4975

          k = 0.7000-0.7000 0.0000 (  3214 PWs)   bands (ev):

    -4.7679  -4.7679  -4.5505  -4.5505  -4.5504  -4.5504  -3.5498  -3.5498
    -3.5498  -3.5498  -2.6177  -2.6177  -2.3980  -2.3980  -2.3980  -2.3980
    -0.6917  -0.6917  -0.6917  -0.6917  -0.4666  -0.4666   0.6049   0.6049
     0.6049   0.6049   1.7141   1.7141   1.9268   1.9268   1.9268   1.9268
     2.0541   2.0541   2.0541   2.0541   2.2971   2.2971   2.5299   2.5299
     2.5299   2.5299   3.2627   3.2627   3.2627   3.2627   3.5930   3.5930
     3.9956   3.9956   3.9956   3.9956   4.1358   4.1358   4.1782   4.1782
     4.1782   4.1782   4.4085   4.4085   4.4085   4.4085   5.5769   5.5769
     7.8159   7.8159   8.0556   8.0556   8.0556   8.0556   9.2442   9.2442
     9.2442   9.2442   9.2538   9.2538   9.5976   9.5976   9.5976   9.5976

          k =-0.2500 0.2500 1.0000 (  3212 PWs)   bands (ev):

    -4.6170  -4.6170  -4.6051  -4.6051  -4.6050  -4.6050  -3.6107  -3.6107
    -3.6107  -3.6107  -2.7976  -2.7976  -2.2518  -2.2518  -2.2518  -2.2518
    -0.7669  -0.7669  -0.7669  -0.7669  -0.2965  -0.2965   0.6480   0.6480
     0.6480   0.6480   1.7683   1.7683   1.9942   1.9942   1.9942   1.9942
     2.0100   2.0100   2.1529   2.1529   2.1529   2.1529   2.4840   2.4840
     2.4840   2.4840   3.0757   3.0757   3.0757   3.0757   3.3659   3.3659
     4.1716   4.1716   4.1716   4.1716   4.1924   4.1924   4.1925   4.1925
     4.2486   4.2486   4.3724   4.3724   4.3724   4.3724   5.4703   5.4703
     7.8996   7.8996   7.8996   7.8996   7.9472   7.9472   9.1966   9.1966
     9.5512   9.5512   9.5512   9.5512   9.7149   9.7149   9.7149   9.7149

          k =-0.2000 0.2000 1.0000 (  3220 PWs)   bands (ev):

    -4.6500  -4.6500  -4.6500  -4.6500  -4.4575  -4.4575  -3.6610  -3.6610
    -3.6610  -3.6610  -2.9846  -2.9846  -2.0989  -2.0989  -2.0989  -2.0989
    -0.8683  -0.8683  -0.8683  -0.8683  -0.1151  -0.1151   0.6783   0.6783
     0.6783   0.6783   1.7324   1.7324   1.8482   1.8482   1.9778   1.9778
     1.9778   1.9778   2.3502   2.3502   2.3502   2.3502   2.4456   2.4456
     2.4456   2.4456   2.8931   2.8931   2.8931   2.8931   3.1471   3.1471
     4.1837   4.1837   4.1837   4.1837   4.3424   4.3424   4.3424   4.3424
     4.3660   4.3660   4.3893   4.3893   4.3893   4.3893   5.3572   5.3572
     7.7326   7.7326   7.7326   7.7326   8.0835   8.0835   9.1192   9.1192
     9.3864   9.3864   9.3864   9.3864   9.6407   9.6407   9.6407   9.6407

          k =-0.1500 0.1500 1.0000 (  3222 PWs)   bands (ev):

    -4.6851  -4.6851  -4.6851  -4.6851  -4.2907  -4.2907  -3.6998  -3.6998
    -3.6998  -3.6998  -3.1757  -3.1757  -1.9404  -1.9404  -1.9404  -1.9404
    -0.9918  -0.9918  -0.9918  -0.9918   0.0776   0.0776   0.6991   0.6991
     0.6991   0.6991   1.4634   1.4634   1.9513   1.9513   2.0020   2.0020
     2.0020   2.0020   2.4158   2.4158   2.4158   2.4158   2.5105   2.5105
     2.5105   2.5105   2.7180   2.7180   2.7180   2.7180   2.9369   2.9369
     4.2113   4.2113   4.2113   4.2113   4.3188   4.3188   4.3188   4.3188
     4.4872   4.4872   4.5731   4.5731   4.5731   4.5731   5.2386   5.2386
     7.5685   7.5685   7.5685   7.5685   8.2235   8.2235   9.0202   9.0202
     9.0876   9.0876   9.0876   9.0876   9.4898   9.4898   9.4898   9.4898

          k =-0.1000 0.1000 1.0000 (  3234 PWs)   bands (ev):

    -4.7105  -4.7105  -4.7104  -4.7104  -4.1169  -4.1169  -3.7280  -3.7280
    -3.7280  -3.7280  -3.3687  -3.3687  -1.7776  -1.7776  -1.7776  -1.7776
    -1.1328  -1.1328  -1.1328  -1.1328   0.2812   0.2812   0.7122   0.7122
     0.7122   0.7122   1.2058   1.2058   2.0617   2.0617   2.0617   2.0617
     2.0751   2.0751   2.3939   2.3939   2.3939   2.3939   2.5532   2.5532
     2.5532   2.5532   2.6265   2.6265   2.6265   2.6265   2.7373   2.7373
     4.2467   4.2467   4.2467   4.2467   4.3016   4.3016   4.3016   4.3016
     4.6112   4.6112   4.7253   4.7253   4.7253   4.7253   5.1157   5.1157
     7.4260   7.4260   7.4260   7.4260   8.3654   8.3654   8.8516   8.8516
     8.8516   8.8516   8.9068   8.9068   9.3879   9.3879   9.3879   9.3879

          k =-0.0500 0.0500 1.0000 (  3250 PWs)   bands (ev):

    -4.7266  -4.7266  -4.7266  -4.7266  -3.9364  -3.9364  -3.7447  -3.7447
    -3.7447  -3.7447  -3.5609  -3.5609  -1.6124  -1.6124  -1.6124  -1.6124
    -1.2860  -1.2860  -1.2860  -1.2860   0.4961   0.4961   0.7196   0.7196
     0.7196   0.7196   0.9585   0.9585   2.1516   2.1516   2.1516   2.1516
     2.2174   2.2174   2.3808   2.3808   2.3808   2.3808   2.4015   2.4015
     2.4015   2.4015   2.5501   2.5501   2.6956   2.6956   2.6956   2.6956
     4.2754   4.2754   4.2754   4.2754   4.2908   4.2908   4.2908   4.2908
     4.7373   4.7373   4.8276   4.8276   4.8276   4.8276   4.9905   4.9905
     7.3277   7.3277   7.3277   7.3277   8.5074   8.5074   8.6996   8.6996
     8.6996   8.6996   8.7811   8.7811   9.3285   9.3285   9.3285   9.3285

          k = 0.0000 0.0000 1.0000 (  3250 PWs)   bands (ev):

    -4.7317  -4.7317  -4.7317  -4.7317  -3.7506  -3.7506  -3.7506  -3.7506
    -3.7506  -3.7506  -3.7506  -3.7506  -1.4468  -1.4468  -1.4468  -1.4468
    -1.4468  -1.4468  -1.4468  -1.4468   0.7219   0.7219   0.7219   0.7219
     0.7219   0.7219   0.7219   0.7219   2.2664   2.2664   2.2664   2.2664
     2.2664   2.2664   2.2664   2.2664   2.3763   2.3763   2.3763   2.3763
     2.3763   2.3763   2.3763   2.3763   2.7187   2.7187   2.7187   2.7187
     4.2873   4.2873   4.2873   4.2873   4.2873   4.2873   4.2873   4.2873
     4.8638   4.8638   4.8638   4.8638   4.8638   4.8638   4.8638   4.8638
     7.2929   7.2929   7.2929   7.2929   8.6469   8.6469   8.6469   8.6469
     8.6469   8.6469   8.6469   8.6469   9.3095   9.3095   9.3095   9.3095

          k = 0.0500-0.0500 1.0000 (  3250 PWs)   bands (ev):

    -4.7266  -4.7266  -4.7266  -4.7266  -3.9364  -3.9364  -3.7447  -3.7447
    -3.7447  -3.7447  -3.5609  -3.5609  -1.6124  -1.6124  -1.6124  -1.6124
    -1.2860  -1.2860  -1.2860  -1.2860   0.4961   0.4961   0.7196   0.7196
     0.7196   0.7196   0.9585   0.9585   2.1516   2.1516   2.1516   2.1516
     2.2174   2.2174   2.3808   2.3808   2.3808   2.3808   2.4015   2.4015
     2.4015   2.4015   2.5501   2.5501   2.6956   2.6956   2.6956   2.6956
     4.2754   4.2754   4.2754   4.2754   4.2908   4.2908   4.2908   4.2908
     4.7373   4.7373   4.8276   4.8276   4.8276   4.8276   4.9905   4.9905
     7.3277   7.3277   7.3277   7.3277   8.5074   8.5074   8.6996   8.6996
     8.6996   8.6996   8.7811   8.7811   9.3285   9.3285   9.3285   9.3285

          k = 0.1000-0.1000 1.0000 (  3234 PWs)   bands (ev):

    -4.7105  -4.7105  -4.7104  -4.7104  -4.1169  -4.1169  -3.7280  -3.7280
    -3.7280  -3.7280  -3.3687  -3.3687  -1.7776  -1.7776  -1.7776  -1.7776
    -1.1328  -1.1328  -1.1328  -1.1328   0.2812   0.2812   0.7122   0.7122
     0.7122   0.7122   1.2058   1.2058   2.0617   2.0617   2.0617   2.0617
     2.0751   2.0751   2.3939   2.3939   2.3939   2.3939   2.5532   2.5532
     2.5532   2.5532   2.6265   2.6265   2.6265   2.6265   2.7373   2.7373
     4.2467   4.2467   4.2467   4.2467   4.3016   4.3016   4.3016   4.3016
     4.6112   4.6112   4.7253   4.7253   4.7253   4.7253   5.1157   5.1157
     7.4260   7.4260   7.4260   7.4260   8.3654   8.3654   8.8516   8.8516
     8.8516   8.8516   8.9068   8.9068   9.3879   9.3879   9.3879   9.3879

          k = 0.1500-0.1500 1.0000 (  3222 PWs)   bands (ev):

    -4.6851  -4.6851  -4.6851  -4.6851  -4.2907  -4.2907  -3.6998  -3.6998
    -3.6998  -3.6998  -3.1757  -3.1757  -1.9404  -1.9404  -1.9404  -1.9404
    -0.9918  -0.9918  -0.9918  -0.9918   0.0776   0.0776   0.6991   0.6991
     0.6991   0.6991   1.4634   1.4634   1.9513   1.9513   2.0020   2.0020
     2.0020   2.0020   2.4158   2.4158   2.4158   2.4158   2.5105   2.5105
     2.5105   2.5105   2.7180   2.7180   2.7180   2.7180   2.9369   2.9369
     4.2113   4.2113   4.2113   4.2113   4.3188   4.3188   4.3188   4.3188
     4.4872   4.4872   4.5731   4.5731   4.5731   4.5731   5.2386   5.2386
     7.5685   7.5685   7.5685   7.5685   8.2235   8.2235   9.0202   9.0202
     9.0876   9.0876   9.0876   9.0876   9.4898   9.4898   9.4898   9.4898

          k = 0.2000-0.2000 1.0000 (  3220 PWs)   bands (ev):

    -4.6500  -4.6500  -4.6500  -4.6500  -4.4575  -4.4575  -3.6610  -3.6610
    -3.6610  -3.6610  -2.9846  -2.9846  -2.0989  -2.0989  -2.0989  -2.0989
    -0.8683  -0.8683  -0.8683  -0.8683  -0.1151  -0.1151   0.6783   0.6783
     0.6783   0.6783   1.7324   1.7324   1.8482   1.8482   1.9778   1.9778
     1.9778   1.9778   2.3502   2.3502   2.3502   2.3502   2.4456   2.4456
     2.4456   2.4456   2.8931   2.8931   2.8931   2.8931   3.1471   3.1471
     4.1837   4.1837   4.1837   4.1837   4.3424   4.3424   4.3424   4.3424
     4.3660   4.3660   4.3893   4.3893   4.3893   4.3893   5.3572   5.3572
     7.7326   7.7326   7.7326   7.7326   8.0835   8.0835   9.1192   9.1192
     9.3864   9.3864   9.3864   9.3864   9.6407   9.6407   9.6407   9.6407

          k =-0.7500 0.7500 0.0000 (  3212 PWs)   bands (ev):

    -4.6170  -4.6170  -4.6051  -4.6051  -4.6050  -4.6050  -3.6107  -3.6107
    -3.6107  -3.6107  -2.7976  -2.7976  -2.2518  -2.2518  -2.2518  -2.2518
    -0.7669  -0.7669  -0.7669  -0.7669  -0.2965  -0.2965   0.6480   0.6480
     0.6480   0.6480   1.7683   1.7683   1.9942   1.9942   1.9942   1.9942
     2.0100   2.0100   2.1529   2.1529   2.1529   2.1529   2.4840   2.4840
     2.4840   2.4840   3.0757   3.0757   3.0757   3.0757   3.3659   3.3659
     4.1716   4.1716   4.1716   4.1716   4.1924   4.1924   4.1925   4.1925
     4.2486   4.2486   4.3724   4.3724   4.3724   4.3724   5.4703   5.4703
     7.8996   7.8996   7.8996   7.8996   7.9472   7.9472   9.1966   9.1966
     9.5512   9.5512   9.5512   9.5512   9.7149   9.7149   9.7149   9.7149

          k =-0.4500 0.4500 0.0000 (  3204 PWs)   bands (ev):

    -5.3816  -5.3816  -4.1512  -4.1512  -4.1512  -4.1512  -3.0806  -3.0806
    -3.0806  -3.0806  -3.0012  -3.0012  -3.0012  -3.0012  -1.9261  -1.9261
    -1.1441  -1.1441  -0.6485  -0.6485  -0.6485  -0.6485   0.1107   0.1107
     0.1107   0.1107   0.6305   0.6305   0.6305   0.6305   1.9120   1.9120
     2.8512   2.8512   2.8512   2.8512   2.9475   2.9475   2.9475   2.9475
     3.3123   3.3123   3.3123   3.3123   3.6629   3.6629   3.8569   3.8569
     4.1818   4.1818   4.1818   4.1818   4.4294   4.4294   4.4294   4.4294
     4.6542   4.6542   4.6542   4.6542   4.7907   4.7907   5.9850   5.9850
     7.2646   7.2646   7.8766   7.8766   7.8766   7.8766   8.4669   8.4669
     8.4669   8.4669   8.5203   8.5203   8.5203   8.5203   9.1496   9.1496

          k =-0.4000 0.4000 0.0000 (  3194 PWs)   bands (ev):

    -5.4740  -5.4740  -4.0523  -4.0523  -4.0523  -4.0523  -3.0924  -3.0924
    -3.0924  -3.0924  -2.9550  -2.9550  -2.9550  -2.9550  -1.8424  -1.8424
    -1.2446  -1.2446  -0.6767  -0.6767  -0.6767  -0.6767  -0.0487  -0.0487
    -0.0487  -0.0487   0.3771   0.3771   0.3772   0.3772   2.0504   2.0504
     2.9262   2.9262   2.9262   2.9262   3.2094   3.2094   3.2094   3.2094
     3.2591   3.2591   3.2591   3.2591   3.5898   3.5898   4.1866   4.1866
     4.3433   4.3433   4.3433   4.3433   4.5076   4.5076   4.5076   4.5076
     4.7101   4.7101   4.7101   4.7101   5.0277   5.0277   6.0398   6.0398
     7.1796   7.1796   7.6511   7.6511   7.6511   7.6511   8.2395   8.2395
     8.2395   8.2395   8.4473   8.4473   8.4473   8.4473   9.0086   9.0086

          k =-0.3500 0.3500 0.0000 (  3216 PWs)   bands (ev):

    -5.5560  -5.5560  -3.9499  -3.9499  -3.9499  -3.9499  -3.1738  -3.1738
    -3.1738  -3.1738  -2.8202  -2.8202  -2.8202  -2.8202  -1.7766  -1.7766
    -1.3334  -1.3334  -0.7077  -0.7077  -0.7077  -0.7077  -0.2256  -0.2256
    -0.2256  -0.2256   0.1356   0.1356   0.1356   0.1356   2.2165   2.2165
     3.0006   3.0006   3.0006   3.0006   3.2301   3.2301   3.2301   3.2301
     3.4853   3.4853   3.4853   3.4853   3.5247   3.5247   4.4908   4.4908
     4.4908   4.4908   4.5182   4.5182   4.5898   4.5898   4.5898   4.5898
     4.7648   4.7648   4.7648   4.7648   5.2575   5.2575   6.0850   6.0850
     7.1040   7.1040   7.4454   7.4454   7.4454   7.4454   7.9763   7.9763
     7.9763   7.9763   8.3807   8.3807   8.3807   8.3807   8.8612   8.8612

          k =-0.3000 0.3000 0.0000 (  3226 PWs)   bands (ev):

    -5.6270  -5.6270  -3.8465  -3.8465  -3.8465  -3.8465  -3.2451  -3.2451
    -3.2451  -3.2451  -2.6755  -2.6755  -2.6755  -2.6755  -1.7264  -1.7264
    -1.4122  -1.4122  -0.7389  -0.7389  -0.7389  -0.7389  -0.4145  -0.4145
    -0.4145  -0.4145  -0.0904  -0.0904  -0.0904  -0.0904   2.4038   2.4038
     3.0726   3.0726   3.0726   3.0726   3.2216   3.2216   3.2216   3.2216
     3.4677   3.4677   3.7695   3.7695   3.7695   3.7695   4.6212   4.6212
     4.6212   4.6212   4.6738   4.6738   4.6738   4.6738   4.8180   4.8180
     4.8180   4.8180   4.8485   4.8485   5.4759   5.4759   6.1231   6.1231
     7.0369   7.0369   7.2635   7.2635   7.2635   7.2635   7.7334   7.7334
     7.7334   7.7334   8.2776   8.2776   8.2776   8.2776   8.4290   8.4290

          k =-0.2500 0.2500 0.0000 (  3233 PWs)   bands (ev):

    -5.6883  -5.6883  -3.7452  -3.7452  -3.7452  -3.7452  -3.3053  -3.3053
    -3.3053  -3.3053  -2.5212  -2.5212  -2.5211  -2.5211  -1.6895  -1.6895
    -1.4775  -1.4775  -0.7680  -0.7680  -0.7680  -0.7680  -0.6118  -0.6118
    -0.6118  -0.6118  -0.2966  -0.2966  -0.2966  -0.2966   2.6043   2.6043
     3.1393   3.1393   3.1393   3.1393   3.2284   3.2284   3.2285   3.2285
     3.4192   3.4192   4.0543   4.0543   4.0544   4.0544   4.7345   4.7345
     4.7345   4.7345   4.7564   4.7564   4.7564   4.7564   4.8675   4.8675
     4.8675   4.8675   5.1716   5.1716   5.6774   5.6774   6.1521   6.1521
     6.9807   6.9807   7.1091   7.1091   7.1091   7.1091   7.5136   7.5136
     7.5136   7.5136   8.0171   8.0171   8.1571   8.1571   8.1571   8.1571

          k =-0.2000 0.2000 0.0000 (  3227 PWs)   bands (ev):

    -5.7384  -5.7384  -3.6501  -3.6501  -3.6501  -3.6501  -3.3548  -3.3548
    -3.3548  -3.3548  -2.3578  -2.3578  -2.3578  -2.3578  -1.6629  -1.6629
    -1.5303  -1.5303  -0.8141  -0.8141  -0.8141  -0.8141  -0.7936  -0.7936
    -0.7936  -0.7936  -0.4783  -0.4783  -0.4783  -0.4783   2.8075   2.8075
     3.1981   3.1981   3.1982   3.1982   3.2454   3.2454   3.2454   3.2454
     3.3803   3.3803   4.3304   4.3304   4.3304   4.3304   4.8284   4.8284
     4.8284   4.8284   4.8334   4.8334   4.8334   4.8334   4.9111   4.9111
     4.9111   4.9111   5.4802   5.4802   5.8563   5.8563   6.1760   6.1760
     6.9359   6.9359   6.9854   6.9854   6.9854   6.9854   7.3193   7.3193
     7.3193   7.3193   7.6455   7.6455   8.0371   8.0371   8.0372   8.0372

          k =-0.1500 0.1500 0.0000 (  3221 PWs)   bands (ev):

    -5.7772  -5.7772  -3.5666  -3.5666  -3.5666  -3.5666  -3.3932  -3.3932
    -3.3932  -3.3932  -2.1856  -2.1856  -2.1856  -2.1856  -1.6444  -1.6444
    -1.5718  -1.5718  -1.0187  -1.0187  -1.0187  -1.0187  -0.8144  -0.8144
    -0.8144  -0.8144  -0.6300  -0.6300  -0.6300  -0.6300   2.9992   2.9992
     3.2461   3.2461   3.2461   3.2461   3.2667   3.2667   3.2667   3.2667
     3.3491   3.3491   4.5854   4.5854   4.5854   4.5854   4.9001   4.9001
     4.9001   4.9001   4.9020   4.9020   4.9020   4.9020   4.9474   4.9474
     4.9474   4.9474   5.7619   5.7619   6.0051   6.0051   6.1937   6.1937
     6.8956   6.8956   6.8956   6.8956   6.8998   6.8998   7.1531   7.1531
     7.1531   7.1531   7.3261   7.3261   7.9284   7.9284   7.9284   7.9284

          k =-0.1000 0.1000 0.0000 (  3215 PWs)   bands (ev):

    -5.8049  -5.8049  -3.5004  -3.5004  -3.5004  -3.5004  -3.4208  -3.4208
    -3.4208  -3.4208  -2.0053  -2.0053  -2.0053  -2.0053  -1.6330  -1.6330
    -1.6009  -1.6009  -1.2233  -1.2233  -1.2233  -1.2233  -0.8298  -0.8298
    -0.8298  -0.8298  -0.7452  -0.7452  -0.7452  -0.7452   3.1602   3.1602
     3.2814   3.2814   3.2814   3.2814   3.2876   3.2876   3.2876   3.2876
     3.3267   3.3267   4.7986   4.7986   4.7986   4.7986   4.9523   4.9523
     4.9523   4.9523   4.9548   4.9548   4.9548   4.9548   4.9747   4.9747
     4.9747   4.9747   5.9968   5.9968   6.1189   6.1189   6.2057   6.2057
     6.8427   6.8427   6.8427   6.8427   6.8744   6.8744   7.0188   7.0188
     7.0188   7.0188   7.0742   7.0742   7.8430   7.8430   7.8430   7.8430

          k =-0.0500 0.0500 0.0000 (  3213 PWs)   bands (ev):

    -5.8216  -5.8216  -3.4582  -3.4582  -3.4582  -3.4582  -3.4373  -3.4373
    -3.4373  -3.4373  -1.8181  -1.8181  -1.8181  -1.8181  -1.6256  -1.6256
    -1.6182  -1.6182  -1.4256  -1.4256  -1.4256  -1.4256  -0.8393  -0.8393
    -0.8393  -0.8393  -0.8177  -0.8177  -0.8177  -0.8177   3.2699   3.2699
     3.3022   3.3022   3.3022   3.3022   3.3031   3.3031   3.3031   3.3031
     3.3137   3.3137   4.9447   4.9447   4.9447   4.9447   4.9854   4.9854
     4.9854   4.9854   4.9865   4.9865   4.9865   4.9865   4.9911   4.9911
     4.9911   4.9911   6.1572   6.1572   6.1908   6.1908   6.2130   6.2130
     6.8283   6.8283   6.8283   6.8283   6.8606   6.8606   6.9115   6.9115
     6.9187   6.9187   6.9187   6.9187   7.7887   7.7887   7.7887   7.7887

     Writing output data file SC_Trev.save/

     init_run     :      0.19s CPU      0.31s WALL (       1 calls)
     electrons    :    886.18s CPU    898.34s WALL (       1 calls)

     Called by init_run:
     wfcinit      :      0.00s CPU      0.01s WALL (       1 calls)
     wfcinit:atom :      0.21s CPU      0.47s WALL (      71 calls)
     wfcinit:wfcr :     55.50s CPU     56.61s WALL (      71 calls)
     potinit      :      0.03s CPU      0.06s WALL (       1 calls)
     hinit0       :      0.09s CPU      0.15s WALL (       1 calls)

     Called by electrons:
     c_bands      :    886.18s CPU    898.34s WALL (       1 calls)
     v_of_rho     :      0.01s CPU      0.01s WALL (       1 calls)
     v_h          :      0.00s CPU      0.00s WALL (       1 calls)
     v_xc         :      0.00s CPU      0.00s WALL (       1 calls)

     Called by c_bands:
     init_us_2    :      0.08s CPU      0.07s WALL (      71 calls)
     cegterg      :    827.26s CPU    835.19s WALL (     152 calls)

     Called by sum_band:

     Called by *egterg:
     h_psi        :    478.75s CPU    485.64s WALL (    2466 calls)
     g_psi        :      2.08s CPU      2.02s WALL (    2243 calls)
     cdiaghg      :    115.81s CPU    116.25s WALL (    2314 calls)
     cegterg:over :    126.06s CPU    126.40s WALL (    2243 calls)
     cegterg:upda :     86.61s CPU     87.08s WALL (    2243 calls)
     cegterg:last :     50.30s CPU     50.44s WALL (     402 calls)

     Called by h_psi:
     h_psi:pot    :    476.29s CPU    482.61s WALL (    2466 calls)
     h_psi:calbec :     23.41s CPU     23.85s WALL (    2466 calls)
     vloc_psi     :    430.79s CPU    436.65s WALL (    2466 calls)
     add_vuspsi   :     22.05s CPU     22.09s WALL (    2466 calls)

     General routines
     calbec       :     23.39s CPU     23.84s WALL (    2466 calls)
     fft          :      0.03s CPU      0.08s WALL (      10 calls)
     fftw         :    348.65s CPU    352.63s WALL (  389196 calls)
     davcio       :      0.19s CPU      8.40s WALL (     142 calls)

     Parallel routines
     fft_scatt_xy :     54.11s CPU     54.92s WALL (  389206 calls)
     fft_scatt_yz :     45.89s CPU     46.91s WALL (  389206 calls)

     PWSCF        : 14m47.31s CPU    15m12.22s WALL


   This run was terminated on:  13:59:19  30May2019            

=------------------------------------------------------------------------------=
   JOB DONE.
=------------------------------------------------------------------------------=
